# vtk DataFile Version 3.0
#This file was generated by the deal.II library on 2018/12/12 at 9:09:36
ASCII
DATASET UNSTRUCTURED_GRID

POINTS 15440 double
-0.146447 -0.292893 0
0 -0.292893 0
-0.146447 -0.146447 0
0 -0.146447 0
-0.292893 -0.146447 0
-0.146447 -0.146447 0
-0.292893 0 0
-0.146447 0 0
-0.146447 -0.146447 0
0 -0.146447 0
-0.146447 0 0
0 0 0
0 -0.292893 0
0.146447 -0.292893 0
0 -0.146447 0
0.146447 -0.146447 0
0 -0.146447 0
0.146447 -0.146447 0
0 0 0
0.146447 0 0
0.146447 -0.146447 0
0.292893 -0.146447 0
0.146447 0 0
0.292893 0 0
-0.292893 0 0
-0.146447 0 0
-0.292893 0.146447 0
-0.146447 0.146447 0
-0.146447 0 0
0 0 0
-0.146447 0.146447 0
0 0.146447 0
-0.146447 0.146447 0
0 0.146447 0
-0.146447 0.292893 0
0 0.292893 0
0 0 0
0.146447 0 0
0 0.146447 0
0.146447 0.146447 0
0.146447 0 0
0.292893 0 0
0.146447 0.146447 0
0.292893 0.146447 0
0 0.146447 0
0.146447 0.146447 0
0 0.292893 0
0.146447 0.292893 0
-0.316342 -0.748551 0
-0.158171 -0.785887 0
-0.283171 -0.660887 0
-0.141585 -0.697861 0
-0.158171 -0.785887 0
-8.32667e-17 -0.823223 0
-0.141585 -0.697861 0
-6.93889e-17 -0.734835 0
-0.283171 -0.660887 0
-0.141585 -0.697861 0
-0.25 -0.573223 0
-0.125 -0.609835 0
-0.141585 -0.697861 0
-6.93889e-17 -0.734835 0
-0.125 -0.609835 0
-5.55112e-17 -0.646447 0
-8.32667e-17 -0.823223 0
0.158171 -0.785887 0
-6.93889e-17 -0.734835 0
0.141585 -0.697861 0
0.158171 -0.785887 0
0.316342 -0.748551 0
0.141585 -0.697861 0
0.283171 -0.660887 0
-6.93889e-17 -0.734835 0
0.141585 -0.697861 0
-5.55112e-17 -0.646447 0
0.125 -0.609835 0
0.141585 -0.697861 0
0.283171 -0.660887 0
0.125 -0.609835 0
0.25 -0.573223 0
-0.748551 -0.316342 0
-0.660887 -0.283171 0
-0.785887 -0.158171 0
-0.697861 -0.141585 0
-0.660887 -0.283171 0
-0.573223 -0.25 0
-0.697861 -0.141585 0
-0.609835 -0.125 0
-0.785887 -0.158171 0
-0.697861 -0.141585 0
-0.823223 -8.32667e-17 0
-0.734835 -6.93889e-17 0
-0.697861 -0.141585 0
-0.609835 -0.125 0
-0.734835 -6.93889e-17 0
-0.646447 -5.55112e-17 0
-0.823223 -8.32667e-17 0
-0.734835 -6.93889e-17 0
-0.785887 0.158171 0
-0.697861 0.141585 0
-0.734835 -6.93889e-17 0
-0.646447 -5.55112e-17 0
-0.697861 0.141585 0
-0.609835 0.125 0
-0.785887 0.158171 0
-0.697861 0.141585 0
-0.748551 0.316342 0
-0.660887 0.283171 0
-0.697861 0.141585 0
-0.609835 0.125 0
-0.660887 0.283171 0
-0.573223 0.25 0
0.748551 -0.316342 0
0.785887 -0.158171 0
0.660887 -0.283171 0
0.697861 -0.141585 0
0.785887 -0.158171 0
0.823223 -8.32667e-17 0
0.697861 -0.141585 0
0.734835 -6.93889e-17 0
0.660887 -0.283171 0
0.697861 -0.141585 0
0.573223 -0.25 0
0.609835 -0.125 0
0.697861 -0.141585 0
0.734835 -6.93889e-17 0
0.609835 -0.125 0
0.646447 -5.55112e-17 0
0.823223 -8.32667e-17 0
0.785887 0.158171 0
0.734835 -6.93889e-17 0
0.697861 0.141585 0
0.785887 0.158171 0
0.748551 0.316342 0
0.697861 0.141585 0
0.660887 0.283171 0
0.734835 -6.93889e-17 0
0.697861 0.141585 0
0.646447 -5.55112e-17 0
0.609835 0.125 0
0.697861 0.141585 0
0.660887 0.283171 0
0.609835 0.125 0
0.573223 0.25 0
-0.316342 0.748551 0
-0.283171 0.660887 0
-0.158171 0.785887 0
-0.141585 0.697861 0
-0.283171 0.660887 0
-0.25 0.573223 0
-0.141585 0.697861 0
-0.125 0.609835 0
-0.158171 0.785887 0
-0.141585 0.697861 0
-8.32667e-17 0.823223 0
-6.93889e-17 0.734835 0
-0.141585 0.697861 0
-0.125 0.609835 0
-6.93889e-17 0.734835 0
-5.55112e-17 0.646447 0
-8.32667e-17 0.823223 0
-6.93889e-17 0.734835 0
0.158171 0.785887 0
0.141585 0.697861 0
-6.93889e-17 0.734835 0
-5.55112e-17 0.646447 0
0.141585 0.697861 0
0.125 0.609835 0
0.158171 0.785887 0
0.141585 0.697861 0
0.316342 0.748551 0
0.283171 0.660887 0
0.141585 0.697861 0
0.125 0.609835 0
0.283171 0.660887 0
0.25 0.573223 0
-0.349513 -0.836215 0
-0.176631 -0.883336 0
-0.316342 -0.748551 0
-0.158171 -0.785887 0
-0.176631 -0.883336 0
-9.71445e-17 -0.911612 0
-0.158171 -0.785887 0
-8.32667e-17 -0.823223 0
-9.71445e-17 -0.911612 0
0.176631 -0.883336 0
-8.32667e-17 -0.823223 0
0.158171 -0.785887 0
0.176631 -0.883336 0
0.349513 -0.836215 0
0.158171 -0.785887 0
0.316342 -0.748551 0
-0.836215 -0.349513 0
-0.748551 -0.316342 0
-0.883336 -0.176631 0
-0.785887 -0.158171 0
-0.883336 -0.176631 0
-0.785887 -0.158171 0
-0.911612 -9.71445e-17 0
-0.823223 -8.32667e-17 0
-0.911612 -9.71445e-17 0
-0.823223 -8.32667e-17 0
-0.883336 0.176631 0
-0.785887 0.158171 0
-0.883336 0.176631 0
-0.785887 0.158171 0
-0.836215 0.349513 0
-0.748551 0.316342 0
0.836215 -0.349513 0
0.883336 -0.176631 0
0.748551 -0.316342 0
0.785887 -0.158171 0
0.883336 -0.176631 0
0.911612 -9.71445e-17 0
0.785887 -0.158171 0
0.823223 -8.32667e-17 0
0.911612 -9.71445e-17 0
0.883336 0.176631 0
0.823223 -8.32667e-17 0
0.785887 0.158171 0
0.883336 0.176631 0
0.836215 0.349513 0
0.785887 0.158171 0
0.748551 0.316342 0
-0.349513 0.836215 0
-0.316342 0.748551 0
-0.176631 0.883336 0
-0.158171 0.785887 0
-0.176631 0.883336 0
-0.158171 0.785887 0
-9.71445e-17 0.911612 0
-8.32667e-17 0.823223 0
-9.71445e-17 0.911612 0
-8.32667e-17 0.823223 0
0.176631 0.883336 0
0.158171 0.785887 0
0.176631 0.883336 0
0.158171 0.785887 0
0.349513 0.836215 0
0.316342 0.748551 0
-0.5 -0.5 0
-0.375 -0.536612 0
-0.448223 -0.448223 0
-0.336167 -0.475682 0
-0.258502 -0.353823 0
-0.172335 -0.362976 0
-0.21967 -0.292893 0
-0.146447 -0.292893 0
0.375 -0.536612 0
0.5 -0.5 0
0.336167 -0.475682 0
0.448223 -0.448223 0
0.172335 -0.362976 0
0.258502 -0.353823 0
0.146447 -0.292893 0
0.21967 -0.292893 0
-0.5 -0.5 0
-0.448223 -0.448223 0
-0.536612 -0.375 0
-0.475682 -0.336167 0
-0.353823 -0.258502 0
-0.292893 -0.21967 0
-0.362976 -0.172335 0
-0.292893 -0.146447 0
-0.536612 0.375 0
-0.475682 0.336167 0
-0.5 0.5 0
-0.448223 0.448223 0
-0.362976 0.172335 0
-0.292893 0.146447 0
-0.353823 0.258502 0
-0.292893 0.21967 0
0.5 -0.5 0
0.536612 -0.375 0
0.448223 -0.448223 0
0.475682 -0.336167 0
0.353823 -0.258502 0
0.362976 -0.172335 0
0.292893 -0.21967 0
0.292893 -0.146447 0
0.536612 0.375 0
0.5 0.5 0
0.475682 0.336167 0
0.448223 0.448223 0
0.362976 0.172335 0
0.353823 0.258502 0
0.292893 0.146447 0
0.292893 0.21967 0
-0.5 0.5 0
-0.448223 0.448223 0
-0.375 0.536612 0
-0.336167 0.475682 0
-0.258502 0.353823 0
-0.21967 0.292893 0
-0.172335 0.362976 0
-0.146447 0.292893 0
0.375 0.536612 0
0.336167 0.475682 0
0.5 0.5 0
0.448223 0.448223 0
0.172335 0.362976 0
0.146447 0.292893 0
0.258502 0.353823 0
0.21967 0.292893 0
-0.65533 -0.65533 0
-0.507759 -0.753761 0
-0.603553 -0.603553 0
-0.459948 -0.676052 0
-0.507759 -0.753761 0
-0.349513 -0.836215 0
-0.459948 -0.676052 0
-0.316342 -0.748551 0
-0.603553 -0.603553 0
-0.459948 -0.676052 0
-0.551777 -0.551777 0
-0.417474 -0.606332 0
-0.459948 -0.676052 0
-0.316342 -0.748551 0
-0.417474 -0.606332 0
-0.283171 -0.660887 0
-0.551777 -0.551777 0
-0.417474 -0.606332 0
-0.5 -0.5 0
-0.375 -0.536612 0
-0.417474 -0.606332 0
-0.283171 -0.660887 0
-0.375 -0.536612 0
-0.25 -0.573223 0
0.349513 -0.836215 0
0.507759 -0.753761 0
0.316342 -0.748551 0
0.459948 -0.676052 0
0.507759 -0.753761 0
0.65533 -0.65533 0
0.459948 -0.676052 0
0.603553 -0.603553 0
0.316342 -0.748551 0
0.459948 -0.676052 0
0.283171 -0.660887 0
0.417474 -0.606332 0
0.459948 -0.676052 0
0.603553 -0.603553 0
0.417474 -0.606332 0
0.551777 -0.551777 0
0.283171 -0.660887 0
0.417474 -0.606332 0
0.25 -0.573223 0
0.375 -0.536612 0
0.417474 -0.606332 0
0.551777 -0.551777 0
0.375 -0.536612 0
0.5 -0.5 0
-0.65533 -0.65533 0
-0.603553 -0.603553 0
-0.753761 -0.507759 0
-0.676052 -0.459948 0
-0.753761 -0.507759 0
-0.676052 -0.459948 0
-0.836215 -0.349513 0
-0.748551 -0.316342 0
-0.603553 -0.603553 0
-0.551777 -0.551777 0
-0.676052 -0.459948 0
-0.606332 -0.417474 0
-0.551777 -0.551777 0
-0.5 -0.5 0
-0.606332 -0.417474 0
-0.536612 -0.375 0
-0.676052 -0.459948 0
-0.606332 -0.417474 0
-0.748551 -0.316342 0
-0.660887 -0.283171 0
-0.606332 -0.417474 0
-0.536612 -0.375 0
-0.660887 -0.283171 0
-0.573223 -0.25 0
-0.836215 0.349513 0
-0.748551 0.316342 0
-0.753761 0.507759 0
-0.676052 0.459948 0
-0.753761 0.507759 0
-0.676052 0.459948 0
-0.65533 0.65533 0
-0.603553 0.603553 0
-0.748551 0.316342 0
-0.660887 0.283171 0
-0.676052 0.459948 0
-0.606332 0.417474 0
-0.660887 0.283171 0
-0.573223 0.25 0
-0.606332 0.417474 0
-0.536612 0.375 0
-0.676052 0.459948 0
-0.606332 0.417474 0
-0.603553 0.603553 0
-0.551777 0.551777 0
-0.606332 0.417474 0
-0.536612 0.375 0
-0.551777 0.551777 0
-0.5 0.5 0
0.65533 -0.65533 0
0.753761 -0.507759 0
0.603553 -0.603553 0
0.676052 -0.459948 0
0.753761 -0.507759 0
0.836215 -0.349513 0
0.676052 -0.459948 0
0.748551 -0.316342 0
0.603553 -0.603553 0
0.676052 -0.459948 0
0.551777 -0.551777 0
0.606332 -0.417474 0
0.676052 -0.459948 0
0.748551 -0.316342 0
0.606332 -0.417474 0
0.660887 -0.283171 0
0.551777 -0.551777 0
0.606332 -0.417474 0
0.5 -0.5 0
0.536612 -0.375 0
0.606332 -0.417474 0
0.660887 -0.283171 0
0.536612 -0.375 0
0.573223 -0.25 0
0.836215 0.349513 0
0.753761 0.507759 0
0.748551 0.316342 0
0.676052 0.459948 0
0.753761 0.507759 0
0.65533 0.65533 0
0.676052 0.459948 0
0.603553 0.603553 0
0.748551 0.316342 0
0.676052 0.459948 0
0.660887 0.283171 0
0.606332 0.417474 0
0.676052 0.459948 0
0.603553 0.603553 0
0.606332 0.417474 0
0.551777 0.551777 0
0.660887 0.283171 0
0.606332 0.417474 0
0.573223 0.25 0
0.536612 0.375 0
0.606332 0.417474 0
0.551777 0.551777 0
0.536612 0.375 0
0.5 0.5 0
-0.65533 0.65533 0
-0.603553 0.603553 0
-0.507759 0.753761 0
-0.459948 0.676052 0
-0.507759 0.753761 0
-0.459948 0.676052 0
-0.349513 0.836215 0
-0.316342 0.748551 0
-0.603553 0.603553 0
-0.551777 0.551777 0
-0.459948 0.676052 0
-0.417474 0.606332 0
-0.551777 0.551777 0
-0.5 0.5 0
-0.417474 0.606332 0
-0.375 0.536612 0
-0.459948 0.676052 0
-0.417474 0.606332 0
-0.316342 0.748551 0
-0.283171 0.660887 0
-0.417474 0.606332 0
-0.375 0.536612 0
-0.283171 0.660887 0
-0.25 0.573223 0
0.349513 0.836215 0
0.316342 0.748551 0
0.507759 0.753761 0
0.459948 0.676052 0
0.507759 0.753761 0
0.459948 0.676052 0
0.65533 0.65533 0
0.603553 0.603553 0
0.316342 0.748551 0
0.283171 0.660887 0
0.459948 0.676052 0
0.417474 0.606332 0
0.283171 0.660887 0
0.25 0.573223 0
0.417474 0.606332 0
0.375 0.536612 0
[...]
POINT_DATA 15440
SCALARS solution double 1
LOOKUP_TABLE default
0.188964 0.189232 0.189768 0.190036 0.188964 0.189768 0.189232 0.190036 0.189768 0.190036 0.190036 0.190304 0.189232 0.188964 0.190036 0.189768 0.190036 0.189768 0.190304 0.190036 0.189768 0.188964 0.190036 0.189232 0.189232 0.190036 0.188964 0.189768 0.190036 0.190304 0.189768 0.190036 0.189768 0.190036 0.188964 0.189232 0.190304 0.190036 0.190036 0.189768 0.190036 0.189232 0.189768 0.188964 0.190036 0.189768 0.189232 0.188964 0.084798 0.0892395 0.120658 0.123135 0.0892395 0.0804749 0.123135 0.114904 0.120658 0.123135 0.152121 0.153019 0.123135 0.114904 0.153019 0.145427 0.0804749 0.0892395 0.114904 0.123135 0.0892395 0.084798 0.123135 0.120658 0.114904 0.123135 0.145427 0.153019 0.123135 0.120658 0.153019 0.152121 0.084798 0.120658 0.0892395 0.123135 0.120658 0.152121 0.123135 0.153019 0.0892395 0.123135 0.0804749 0.114904 0.123135 0.153019 0.114904 0.145427 0.0804749 0.114904 0.0892395 0.123135 0.114904 0.145427 0.123135 0.153019 0.0892395 0.123135 0.084798 0.120658 0.123135 0.153019 0.120658 0.152121 0.084798 0.0892395 0.120658 0.123135 0.0892395 0.0804749 0.123135 0.114904 0.120658 0.123135 0.152121 0.153019 0.123135 0.114904 0.153019 0.145427 0.0804749 0.0892395 0.114904 0.123135 0.0892395 0.084798 0.123135 0.120658 0.114904 0.123135 0.145427 0.153019 0.123135 0.120658 0.153019 0.152121 0.084798 0.120658 0.0892395 0.123135 0.120658 0.152121 0.123135 0.153019 0.0892395 0.123135 0.0804749 0.114904 0.123135 0.153019 0.114904 0.145427 0.0804749 0.114904 0.0892395 0.123135 0.114904 0.145427 0.123135 0.153019 0.0892395 0.123135 0.084798 0.120658 0.123135 0.153019 0.120658 0.152121 0.0445449 0.0470285 0.084798 0.0892395 0.0470285 0.04214 0.0892395 0.0804749 0.04214 0.0470285 0.0804749 0.0892395 0.0470285 0.0445449 0.0892395 0.084798 0.0445449 0.084798 0.0470285 0.0892395 0.0470285 0.0892395 0.04214 0.0804749 0.04214 0.0804749 0.0470285 0.0892395 0.0470285 0.0892395 0.0445449 0.084798 0.0445449 0.0470285 0.084798 0.0892395 0.0470285 0.04214 0.0892395 0.0804749 0.04214 0.0470285 0.0804749 0.0892395 0.0470285 0.0445449 0.0892395 0.084798 0.0445449 0.084798 0.0470285 0.0892395 0.0470285 0.0892395 0.04214 0.0804749 0.04214 0.0804749 0.0470285 0.0892395 0.0470285 0.0892395 0.0445449 0.084798 0.124902 0.142756 0.149453 0.165084 0.187905 0.188286 0.188629 0.188964 0.142756 0.124902 0.165084 0.149453 0.188286 0.187905 0.188964 0.188629 0.124902 0.149453 0.142756 0.165084 0.187905 0.188629 0.188286 0.188964 0.142756 0.165084 0.124902 0.149453 0.188286 0.188964 0.187905 0.188629 0.124902 0.142756 0.149453 0.165084 0.187905 0.188286 0.188629 0.188964 0.142756 0.124902 0.165084 0.149453 0.188286 0.187905 0.188964 0.188629 0.124902 0.149453 0.142756 0.165084 0.187905 0.188629 0.188286 0.188964 0.142756 0.165084 0.124902 0.149453 0.188286 0.188964 0.187905 0.188629 0.0351705 0.0434054 0.0677613 0.0827496 0.0434054 0.0445449 0.0827496 0.084798 0.0677613 0.0827496 0.0976716 0.114419 0.0827496 0.084798 0.114419 0.120658 0.0976716 0.114419 0.124902 0.142756 0.114419 0.120658 0.142756 0.152121 0.0445449 0.0434054 0.084798 0.0827496 0.0434054 0.0351705 0.0827496 0.0677613 0.084798 0.0827496 0.120658 0.114419 0.0827496 0.0677613 0.114419 0.0976716 0.120658 0.114419 0.152121 0.142756 0.114419 0.0976716 0.142756 0.124902 0.0351705 0.0677613 0.0434054 0.0827496 0.0434054 0.0827496 0.0445449 0.084798 0.0677613 0.0976716 0.0827496 0.114419 0.0976716 0.124902 0.114419 0.142756 0.0827496 0.114419 0.084798 0.120658 0.114419 0.142756 0.120658 0.152121 0.0445449 0.084798 0.0434054 0.0827496 0.0434054 0.0827496 0.0351705 0.0677613 0.084798 0.120658 0.0827496 0.114419 0.120658 0.152121 0.114419 0.142756 0.0827496 0.114419 0.0677613 0.0976716 0.114419 0.142756 0.0976716 0.124902 0.0351705 0.0434054 0.0677613 0.0827496 0.0434054 0.0445449 0.0827496 0.084798 0.0677613 0.0827496 0.0976716 0.114419 0.0827496 0.084798 0.114419 0.120658 0.0976716 0.114419 0.124902 0.142756 0.114419 0.120658 0.142756 0.152121 0.0445449 0.0434054 0.084798 0.0827496 0.0434054 0.0351705 0.0827496 0.0677613 0.084798 0.0827496 0.120658 0.114419 0.0827496 0.0677613 0.114419 0.0976716 0.120658 0.114419 0.152121 0.142756 0.114419 0.0976716 0.142756 0.124902 0.0351705 0.0677613 0.0434054 0.0827496 0.0434054 0.0827496 0.0445449 0.084798 0.0677613 0.0976716 0.0827496 0.114419 0.0976716 0.124902 0.114419 0.142756 0.0827496 0.114419 0.084798 0.120658 0.114419 0.142756 0.120658 0.152121 0.0445449 0.084798 0.0434054 0.0827496 0.0434054 0.0827496 0.0351705 0.0677613 0.084798 0.120658 0.0827496 0.114419 0.120658 0.152121 0.114419 0.142756 0.0827496 0.114419 0.0677613 0.0976716 0.114419 0.142756 0.0976716 0.124902 0.188286 0.18848 0.188964 0.189165 0.18848 0.188486 0.189165 0.189232 0.188486 0.18848 0.189232 0.189165 0.18848 0.188286 0.189165 0.188964 0.188286 0.188964 0.18848 0.189165 0.18848 0.189165 0.188486 0.189232 0.188486 0.189232 0.18848 0.189165 0.18848 0.189165 0.188286 0.188964 0.188286 0.18848 0.188964 0.189165 0.18848 0.188486 0.189165 0.189232 0.188486 0.18848 0.189232 0.189165 0.18848 0.188286 0.189165 0.188964 0.188286 0.188964 0.18848 0.189165 0.18848 0.189165 0.188486 0.189232 0.188486 0.189232 0.18848 0.189165 0.18848 0.189165 0.188286 0.188964 0.188161 0.188629 0.188629 0.189098 0.188629 0.188964 0.189098 0.189433 0.188629 0.189098 0.188964 0.189433 0.189098 0.189433 0.189433 0.189768 0.188964 0.188629 0.189433 0.189098 0.188629 0.188161 0.189098 0.188629 0.189433 0.189098 0.189768 0.189433 0.189098 0.188629 0.189433 0.188964 0.188964 0.189433 0.188629 0.189098 0.189433 0.189768 0.189098 0.189433 0.188629 0.189098 0.188161 0.188629 0.189098 0.189433 0.188629 0.188964 0.189768 0.189433 0.189433 0.189098 0.189433 0.188964 0.189098 0.188629 0.189433 0.189098 0.188964 0.188629 0.189098 0.188629 0.188629 0.188161 0.142756 0.148499 0.154245 0.159778 0.148499 0.152121 0.159778 0.163429 0.154245 0.159778 0.165084 0.170389 0.159778 0.163429 0.170389 0.174035 0.149453 0.158102 0.160725 0.16873 0.158102 0.165084 0.16873 0.175275 0.160725 0.16873 0.171328 0.178704 0.153019 0.150284 0.165104 0.163105 0.150284 0.145427 0.163105 0.159224 0.165104 0.163105 0.176402 0.175037 0.163105 0.159224 0.175037 0.172047 0.145427 0.150284 0.159224 0.163105 0.150284 0.153019 0.163105 0.165104 0.159224 0.163105 0.172047 0.175037 0.163105 0.165104 0.175037 0.176402 0.152121 0.148499 0.163429 0.159778 0.148499 0.142756 0.159778 0.154245 0.163429 0.159778 0.174035 0.170389 0.159778 0.154245 0.170389 0.165084 0.165084 0.158102 0.175275 0.16873 0.158102 0.149453 0.16873 0.160725 0.16873 0.160725 0.178704 0.171328 0.149453 0.160725 0.158102 0.16873 0.160725 0.171328 0.16873 0.178704 0.158102 0.16873 0.165084 0.175275 0.142756 0.154245 0.148499 0.159778 0.154245 0.165084 0.159778 0.170389 0.148499 0.159778 0.152121 0.163429 0.159778 0.170389 0.163429 0.174035 0.153019 0.165104 0.150284 0.163105 0.165104 0.176402 0.163105 0.175037 0.150284 0.163105 0.145427 0.159224 0.163105 0.175037 0.159224 0.172047 0.145427 0.159224 0.150284 0.163105 0.159224 0.172047 0.163105 0.175037 0.150284 0.163105 0.153019 0.165104 0.163105 0.175037 0.165104 0.176402 0.152121 0.163429 0.148499 0.159778 0.163429 0.174035 0.159778 0.170389 0.148499 0.159778 0.142756 0.154245 0.159778 0.170389 0.154245 0.165084 0.165084 0.175275 0.158102 0.16873 0.158102 0.16873 0.149453 0.160725 0.16873 0.178704 0.160725 0.171328 0.142756 0.148499 0.154245 0.159778 0.148499 0.152121 0.159778 0.163429 0.154245 0.159778 0.165084 0.170389 0.159778 0.163429 0.170389 0.174035 0.149453 0.158102 0.160725 0.16873 0.158102 0.165084 0.16873 0.175275 0.160725 0.16873 0.171328 0.178704 0.153019 0.150284 0.165104 0.163105 0.150284 0.145427 0.163105 0.159224 0.165104 0.163105 0.176402 0.175037 0.163105 0.159224 0.175037 0.172047 0.145427 0.150284 0.159224 0.163105 0.150284 0.153019 0.163105 0.165104 0.159224 0.163105 0.172047 0.175037 0.163105 0.165104 0.175037 0.176402 0.152121 0.148499 0.163429 0.159778 0.148499 0.142756 0.159778 0.154245 0.163429 0.159778 0.174035 0.170389 0.159778 0.154245 0.170389 0.165084 0.165084 0.158102 0.175275 0.16873 0.158102 0.149453 0.16873 0.160725 0.16873 0.160725 0.178704 0.171328 0.149453 0.160725 0.158102 0.16873 0.160725 0.171328 0.16873 0.178704 0.158102 0.16873 0.165084 0.175275 0.142756 0.154245 0.148499 0.159778 0.154245 0.165084 0.159778 0.170389 0.148499 0.159778 0.152121 0.163429 0.159778 0.170389 0.163429 0.174035 0.153019 0.165104 0.150284 0.163105 0.165104 0.176402 0.163105 0.175037 0.150284 0.163105 0.145427 0.159224 0.163105 0.175037 0.159224 0.172047 0.145427 0.159224 0.150284 0.163105 0.159224 0.172047 0.163105 0.175037 0.150284 0.163105 0.153019 0.165104 0.163105 0.175037 0.165104 0.176402 0.152121 0.163429 0.148499 0.159778 0.163429 0.174035 0.159778 0.170389 0.148499 0.159778 0.142756 0.154245 0.159778 0.170389 0.154245 0.165084 0.165084 0.175275 0.158102 0.16873 0.158102 0.16873 0.149453 0.160725 0.16873 0.178704 0.160725 0.171328 0.0227712 0.0244826 0.0445449 0.0477934 0.0244826 0.0240787 0.0477934 0.0470285 0.0240787 0.0244826 0.0470285 0.0477934 0.0244826 0.0227712 0.0477934 0.0445449 0.0227712 0.0445449 0.0244826 0.0477934 0.0244826 0.0477934 0.0240787 0.0470285 0.0240787 0.0470285 0.0244826 0.0477934 0.0244826 0.0477934 0.0227712 0.0445449 0.0227712 0.0244826 0.0445449 0.0477934 0.0244826 0.0240787 0.0477934 0.0470285 0.0240787 0.0244826 0.0470285 0.0477934 0.0244826 0.0227712 0.0477934 0.0445449 0.0227712 0.0445449 0.0244826 0.0477934 0.0244826 0.0477934 0.0240787 0.0470285 0.0240787 0.0470285 0.0244826 0.0477934 0.0244826 0.0477934 0.0227712 0.0445449 0.152121 0.15363 0.163429 0.165206 0.15363 0.153019 0.165206 0.165104 0.163429 0.165206 0.174035 0.176031 0.165206 0.165104 0.176031 0.176402 0.187494 0.187722 0.187905 0.188119 0.187722 0.187895 0.188119 0.188286 0.187645 0.187905 0.188045 0.188284 0.187766 0.188045 0.188161 0.188412 0.188045 0.188284 0.188412 0.188629 0.153019 0.15363 0.165104 0.165206 0.15363 0.152121 0.165206 0.163429 0.165104 0.165206 0.176402 0.176031 0.165206 0.163429 0.176031 0.174035 0.187895 0.187722 0.188286 0.188119 0.187722 0.187494 0.188119 0.187905 0.187905 0.187645 0.188284 0.188045 0.188284 0.188045 0.188629 0.188412 0.188045 0.187766 0.188412 0.188161 0.187766 0.188161 0.188045 0.188412 0.187645 0.188045 0.187905 0.188284 0.188045 0.188412 0.188284 0.188629 0.187494 0.187905 0.187722 0.188119 0.187722 0.188119 0.187895 0.188286 0.152121 0.163429 0.15363 0.165206 0.163429 0.174035 0.165206 0.176031 0.15363 0.165206 0.153019 0.165104 0.165206 0.176031 0.165104 0.176402 0.153019 0.165104 0.15363 0.165206 0.165104 0.176402 0.165206 0.176031 0.15363 0.165206 0.152121 0.163429 0.165206 0.176031 0.163429 0.174035 0.187895 0.188286 0.187722 0.188119 0.187722 0.188119 0.187494 0.187905 0.187905 0.188284 0.187645 0.188045 0.188284 0.188629 0.188045 0.188412 0.188045 0.188412 0.187766 0.188161 0.152121 0.15363 0.163429 0.165206 0.15363 0.153019 0.165206 0.165104 0.163429 0.165206 0.174035 0.176031 0.165206 0.165104 0.176031 0.176402 0.187494 0.187722 0.187905 0.188119 0.187722 0.187895 0.188119 0.188286 0.187645 0.187905 0.188045 0.188284 0.187766 0.188045 0.188161 0.188412 0.188045 0.188284 0.188412 0.188629 0.153019 0.15363 0.165104 0.165206 0.15363 0.152121 0.165206 0.163429 0.165104 0.165206 0.176402 0.176031 0.165206 0.163429 0.176031 0.174035 0.187895 0.187722 0.188286 0.188119 0.187722 0.187494 0.188119 0.187905 0.187905 0.187645 0.188284 0.188045 0.188284 0.188045 0.188629 0.188412 0.188045 0.187766 0.188412 0.188161 0.187766 0.188161 0.188045 0.188412 0.187645 0.188045 0.187905 0.188284 0.188045 0.188412 0.188284 0.188629 0.187494 0.187905 0.187722 0.188119 0.187722 0.188119 0.187895 0.188286 0.152121 0.163429 0.15363 0.165206 0.163429 0.174035 0.165206 0.176031 0.15363 0.165206 0.153019 0.165104 0.165206 0.176031 0.165104 0.176402 0.153019 0.165104 0.15363 0.165206 0.165104 0.176402 0.165206 0.176031 0.15363 0.165206 0.152121 0.163429 0.165206 0.176031 0.163429 0.174035 0.187895 0.188286 0.187722 0.188119 0.187722 0.188119 0.187494 0.187905 0.187905 0.188284 0.187645 0.188045 0.188284 0.188629 0.188045 0.188412 0.188045 0.188412 0.187766 0.188161 0.187583 0.187632 0.188013 0.188076 0.187895 0.188013 0.188286 0.188406 0.188013 0.188076 0.188406 0.18848 0.187632 0.187622 0.188076 0.188086 0.188076 0.188086 0.18848 0.188506 0.188086 0.188041 0.188506 0.188486 0.187622 0.187632 0.188086 0.188076 0.188041 0.188086 0.188486 0.188506 0.188086 0.188076 0.188506 0.18848 0.187632 0.187583 0.188076 0.188013 0.188076 0.188013 0.18848 0.188406 0.188013 0.187895 0.188406 0.188286 0.187895 0.188286 0.188013 0.188406 0.187583 0.188013 0.187632 0.188076 0.188013 0.188406 0.188076 0.18848 0.187632 0.188076 0.187622 0.188086 0.188076 0.18848 0.188086 0.188506 0.188086 0.188506 0.188041 0.188486 0.188041 0.188486 0.188086 0.188506 0.187622 0.188086 0.187632 0.188076 0.188086 0.188506 0.188076 0.18848 0.187632 0.188076 0.187583 0.188013 0.188076 0.18848 0.188013 0.188406 0.188013 0.188406 0.187895 0.188286 0.187583 0.187632 0.188013 0.188076 0.187895 0.188013 0.188286 0.188406 0.188013 0.188076 0.188406 0.18848 0.187632 0.187622 0.188076 0.188086 0.188076 0.188086 0.18848 0.188506 0.188086 0.188041 0.188506 0.188486 0.187622 0.187632 0.188086 0.188076 0.188041 0.188086 0.188486 0.188506 0.188086 0.188076 0.188506 0.18848 0.187632 0.187583 0.188076 0.188013 0.188076 0.188013 0.18848 0.188406 0.188013 0.187895 0.188406 0.188286 0.187895 0.188286 0.188013 0.188406 0.187583 0.188013 0.187632 0.188076 0.188013 0.188406 0.188076 0.18848 0.187632 0.188076 0.187622 0.188086 0.188076 0.18848 0.188086 0.188506 0.188086 0.188506 0.188041 0.188486 0.188041 0.188486 0.188086 0.188506 0.187622 0.188086 0.187632 0.188076 0.188086 0.188506 0.188076 0.18848 0.187632 0.188076 0.187583 0.188013 0.188076 0.18848 0.188013 0.188406 0.188013 0.188406 0.187895 0.188286 0.0240787 0.0238443 0.0470285 0.0465841 0.0238443 0.0215079 0.0465841 0.04214 0.0215079 0.0238443 0.04214 0.0465841 0.0238443 0.0240787 0.0465841 0.0470285 0.0240787 0.0470285 0.0238443 0.0465841 0.0238443 0.0465841 0.0215079 0.04214 0.0215079 0.04214 0.0238443 0.0465841 0.0238443 0.0465841 0.0240787 0.0470285 0.0240787 0.0238443 0.0470285 0.0465841 0.0238443 0.0215079 0.0465841 0.04214 0.0215079 0.0238443 0.04214 0.0465841 0.0238443 0.0240787 0.0465841 0.0470285 0.0240787 0.0470285 0.0238443 0.0465841 0.0238443 0.0465841 0.0215079 0.04214 0.0215079 0.04214 0.0238443 0.0465841 0.0238443 0.0465841 0.0240787 0.0470285 0.0178701 0.0210445 0.0351705 0.0412546 0.0210445 0.0221726 0.0412546 0.0434054 0.0221726 0.0235188 0.0434054 0.0459651 0.0235188 0.0227712 0.0459651 0.0445449 0.0227712 0.0235188 0.0445449 0.0459651 0.0235188 0.0221726 0.0459651 0.0434054 0.0221726 0.0210445 0.0434054 0.0412546 0.0210445 0.0178701 0.0412546 0.0351705 0.0178701 0.0351705 0.0210445 0.0412546 0.0210445 0.0412546 0.0221726 0.0434054 0.0221726 0.0434054 0.0235188 0.0459651 0.0235188 0.0459651 0.0227712 0.0445449 0.0227712 0.0445449 0.0235188 0.0459651 0.0235188 0.0459651 0.0221726 0.0434054 0.0221726 0.0434054 0.0210445 0.0412546 0.0210445 0.0412546 0.0178701 0.0351705 0.0178701 0.0210445 0.0351705 0.0412546 0.0210445 0.0221726 0.0412546 0.0434054 0.0221726 0.0235188 0.0434054 0.0459651 0.0235188 0.0227712 0.0459651 0.0445449 0.0227712 0.0235188 0.0445449 0.0459651 0.0235188 0.0221726 0.0459651 0.0434054 0.0221726 0.0210445 0.0434054 0.0412546 0.0210445 0.0178701 0.0412546 0.0351705 0.0178701 0.0351705 0.0210445 0.0412546 0.0210445 0.0412546 0.0221726 0.0434054 0.0221726 0.0434054 0.0235188 0.0459651 0.0235188 0.0459651 0.0227712 0.0445449 0.0227712 0.0445449 0.0235188 0.0459651 0.0235188 0.0459651 0.0221726 0.0434054 0.0221726 0.0434054 0.0210445 0.0412546 0.0210445 0.0412546 0.0178701 0.0351705 0.16873 0.172185 0.173799 0.177135 0.172185 0.175275 0.177135 0.180132 0.173799 0.177135 0.178704 0.181924 0.170389 0.172416 0.175441 0.177445 0.172416 0.174035 0.177445 0.179075 0.175441 0.177445 0.180323 0.182294 0.175275 0.17799 0.180132 0.182772 0.174035 0.175242 0.179075 0.180318 0.175242 0.176031 0.180318 0.181158 0.176031 0.176424 0.181158 0.181636 0.176424 0.176402 0.181636 0.181786 0.187306 0.187354 0.187533 0.187583 0.187354 0.187384 0.187583 0.187615 0.187384 0.187391 0.187615 0.187632 0.176402 0.175921 0.181786 0.18138 0.175921 0.175037 0.18138 0.180662 0.175037 0.173752 0.180662 0.179581 0.173752 0.172047 0.179581 0.178098 0.187391 0.187394 0.187632 0.187635 0.187394 0.187374 0.187635 0.187622 0.187374 0.187336 0.187622 0.187592 0.171328 0.175175 0.176379 0.18006 0.175175 0.178704 0.18006 0.183442 0.172047 0.173752 0.178098 0.179581 0.173752 0.175037 0.179581 0.180662 0.175037 0.175921 0.180662 0.18138 0.175921 0.176402 0.18138 0.181786 0.187336 0.187374 0.187592 0.187622 0.187374 0.187394 0.187622 0.187635 0.187394 0.187391 0.187635 0.187632 0.176402 0.176424 0.181786 0.181636 0.176424 0.176031 0.181636 0.181158 0.176031 0.175242 0.181158 0.180318 0.175242 0.174035 0.180318 0.179075 0.187391 0.187384 0.187632 0.187615 0.187384 0.187354 0.187615 0.187583 0.187354 0.187306 0.187583 0.187533 0.174035 0.172416 0.179075 0.177445 0.172416 0.170389 0.177445 0.175441 0.177445 0.175441 0.182294 0.180323 0.17799 0.175275 0.182772 0.180132 0.175275 0.172185 0.180132 0.177135 0.172185 0.16873 0.177135 0.173799 0.177135 0.173799 0.181924 0.178704 0.178704 0.175175 0.183442 0.18006 0.175175 0.171328 0.18006 0.176379 0.16873 0.173799 0.172185 0.177135 0.173799 0.178704 0.177135 0.181924 0.172185 0.177135 0.175275 0.180132 0.175275 0.180132 0.17799 0.182772 0.170389 0.175441 0.172416 0.177445 0.175441 0.180323 0.177445 0.182294 0.172416 0.177445 0.174035 0.179075 0.171328 0.176379 0.175175 0.18006 0.175175 0.18006 0.178704 0.183442 0.174035 0.179075 0.175242 0.180318 0.175242 0.180318 0.176031 0.181158 0.187306 0.187533 0.187354 0.187583 0.176031 0.181158 0.176424 0.181636 0.176424 0.181636 0.176402 0.181786 0.187354 0.187583 0.187384 0.187615 0.187384 0.187615 0.187391 0.187632 0.176402 0.181786 0.175921 0.18138 0.175921 0.18138 0.175037 0.180662 0.187391 0.187632 0.187394 0.187635 0.187394 0.187635 0.187374 0.187622 0.175037 0.180662 0.173752 0.179581 0.173752 0.179581 0.172047 0.178098 0.187374 0.187622 0.187336 0.187592 0.172047 0.178098 0.173752 0.179581 0.173752 0.179581 0.175037 0.180662 0.187336 0.187592 0.187374 0.187622 0.175037 0.180662 0.175921 0.18138 0.175921 0.18138 0.176402 0.181786 0.187374 0.187622 0.187394 0.187635 0.187394 0.187635 0.187391 0.187632 0.176402 0.181786 0.176424 0.181636 0.176424 0.181636 0.176031 0.181158 0.187391 0.187632 0.187384 0.187615 0.187384 0.187615 0.187354 0.187583 0.176031 0.181158 0.175242 0.180318 0.175242 0.180318 0.174035 0.179075 0.187354 0.187583 0.187306 0.187533 0.174035 0.179075 0.172416 0.177445 0.172416 0.177445 0.170389 0.175441 0.177445 0.182294 0.175441 0.180323 0.17799 0.182772 0.175275 0.180132 0.175275 0.180132 0.172185 0.177135 0.172185 0.177135 0.16873 0.173799 0.177135 0.181924 0.173799 0.178704 0.178704 0.183442 0.175175 0.18006 0.175175 0.18006 0.171328 0.176379 0.16873 0.172185 0.173799 0.177135 0.172185 0.175275 0.177135 0.180132 0.173799 0.177135 0.178704 0.181924 0.170389 0.172416 0.175441 0.177445 0.172416 0.174035 0.177445 0.179075 0.175441 0.177445 0.180323 0.182294 0.175275 0.17799 0.180132 0.182772 0.174035 0.175242 0.179075 0.180318 0.175242 0.176031 0.180318 0.181158 0.176031 0.176424 0.181158 0.181636 0.176424 0.176402 0.181636 0.181786 0.187306 0.187354 0.187533 0.187583 0.187354 0.187384 0.187583 0.187615 0.187384 0.187391 0.187615 0.187632 0.176402 0.175921 0.181786 0.18138 0.175921 0.175037 0.18138 0.180662 0.175037 0.173752 0.180662 0.179581 0.173752 0.172047 0.179581 0.178098 0.187391 0.187394 0.187632 0.187635 0.187394 0.187374 0.187635 0.187622 0.187374 0.187336 0.187622 0.187592 0.171328 0.175175 0.176379 0.18006 0.175175 0.178704 0.18006 0.183442 0.172047 0.173752 0.178098 0.179581 0.173752 0.175037 0.179581 0.180662 0.175037 0.175921 