# vtk DataFile Version 3.0
#This file was generated by the deal.II library on 2018/12/12 at 9:09:36
ASCII
DATASET UNSTRUCTURED_GRID

POINTS 7664 double
-0.146447 -0.292893 0
0 -0.292893 0
-0.146447 -0.146447 0
0 -0.146447 0
-0.292893 -0.146447 0
-0.146447 -0.146447 0
-0.292893 0 0
-0.146447 0 0
-0.146447 -0.146447 0
0 -0.146447 0
-0.146447 0 0
0 0 0
0 -0.292893 0
0.146447 -0.292893 0
0 -0.146447 0
0.146447 -0.146447 0
0 -0.146447 0
0.146447 -0.146447 0
0 0 0
0.146447 0 0
0.146447 -0.146447 0
0.292893 -0.146447 0
0.146447 0 0
0.292893 0 0
-0.292893 0 0
-0.146447 0 0
-0.292893 0.146447 0
-0.146447 0.146447 0
-0.146447 0 0
0 0 0
-0.146447 0.146447 0
0 0.146447 0
-0.146447 0.146447 0
0 0.146447 0
-0.146447 0.292893 0
0 0.292893 0
0 0 0
0.146447 0 0
0 0.146447 0
0.146447 0.146447 0
0.146447 0 0
0.292893 0 0
0.146447 0.146447 0
0.292893 0.146447 0
0 0.146447 0
0.146447 0.146447 0
0 0.292893 0
0.146447 0.292893 0
-0.316342 -0.748551 0
-0.158171 -0.785887 0
-0.283171 -0.660887 0
-0.141585 -0.697861 0
-0.158171 -0.785887 0
-8.32667e-17 -0.823223 0
-0.141585 -0.697861 0
-6.93889e-17 -0.734835 0
-0.283171 -0.660887 0
-0.141585 -0.697861 0
-0.25 -0.573223 0
-0.125 -0.609835 0
-0.141585 -0.697861 0
-6.93889e-17 -0.734835 0
-0.125 -0.609835 0
-5.55112e-17 -0.646447 0
-8.32667e-17 -0.823223 0
0.158171 -0.785887 0
-6.93889e-17 -0.734835 0
0.141585 -0.697861 0
0.158171 -0.785887 0
0.316342 -0.748551 0
0.141585 -0.697861 0
0.283171 -0.660887 0
-6.93889e-17 -0.734835 0
0.141585 -0.697861 0
-5.55112e-17 -0.646447 0
0.125 -0.609835 0
0.141585 -0.697861 0
0.283171 -0.660887 0
0.125 -0.609835 0
0.25 -0.573223 0
-0.748551 -0.316342 0
-0.660887 -0.283171 0
-0.785887 -0.158171 0
-0.697861 -0.141585 0
-0.660887 -0.283171 0
-0.573223 -0.25 0
-0.697861 -0.141585 0
-0.609835 -0.125 0
-0.785887 -0.158171 0
-0.697861 -0.141585 0
-0.823223 -8.32667e-17 0
-0.734835 -6.93889e-17 0
-0.697861 -0.141585 0
-0.609835 -0.125 0
-0.734835 -6.93889e-17 0
-0.646447 -5.55112e-17 0
-0.823223 -8.32667e-17 0
-0.734835 -6.93889e-17 0
-0.785887 0.158171 0
-0.697861 0.141585 0
-0.734835 -6.93889e-17 0
-0.646447 -5.55112e-17 0
-0.697861 0.141585 0
-0.609835 0.125 0
-0.785887 0.158171 0
-0.697861 0.141585 0
-0.748551 0.316342 0
-0.660887 0.283171 0
-0.697861 0.141585 0
-0.609835 0.125 0
-0.660887 0.283171 0
-0.573223 0.25 0
0.748551 -0.316342 0
0.785887 -0.158171 0
0.660887 -0.283171 0
0.697861 -0.141585 0
0.785887 -0.158171 0
0.823223 -8.32667e-17 0
0.697861 -0.141585 0
0.734835 -6.93889e-17 0
0.660887 -0.283171 0
0.697861 -0.141585 0
0.573223 -0.25 0
0.609835 -0.125 0
0.697861 -0.141585 0
0.734835 -6.93889e-17 0
0.609835 -0.125 0
0.646447 -5.55112e-17 0
0.823223 -8.32667e-17 0
0.785887 0.158171 0
0.734835 -6.93889e-17 0
0.697861 0.141585 0
0.785887 0.158171 0
0.748551 0.316342 0
0.697861 0.141585 0
0.660887 0.283171 0
0.734835 -6.93889e-17 0
0.697861 0.141585 0
0.646447 -5.55112e-17 0
0.609835 0.125 0
0.697861 0.141585 0
0.660887 0.283171 0
0.609835 0.125 0
0.573223 0.25 0
-0.316342 0.748551 0
-0.283171 0.660887 0
-0.158171 0.785887 0
-0.141585 0.697861 0
-0.283171 0.660887 0
-0.25 0.573223 0
-0.141585 0.697861 0
-0.125 0.609835 0
-0.158171 0.785887 0
-0.141585 0.697861 0
-8.32667e-17 0.823223 0
-6.93889e-17 0.734835 0
-0.141585 0.697861 0
-0.125 0.609835 0
-6.93889e-17 0.734835 0
-5.55112e-17 0.646447 0
-8.32667e-17 0.823223 0
-6.93889e-17 0.734835 0
0.158171 0.785887 0
0.141585 0.697861 0
-6.93889e-17 0.734835 0
-5.55112e-17 0.646447 0
0.141585 0.697861 0
0.125 0.609835 0
0.158171 0.785887 0
0.141585 0.697861 0
0.316342 0.748551 0
0.283171 0.660887 0
0.141585 0.697861 0
0.125 0.609835 0
0.283171 0.660887 0
0.25 0.573223 0
-0.349513 -0.836215 0
-0.176631 -0.883336 0
-0.316342 -0.748551 0
-0.158171 -0.785887 0
-0.176631 -0.883336 0
-9.71445e-17 -0.911612 0
-0.158171 -0.785887 0
-8.32667e-17 -0.823223 0
-9.71445e-17 -0.911612 0
0.176631 -0.883336 0
-8.32667e-17 -0.823223 0
0.158171 -0.785887 0
0.176631 -0.883336 0
0.349513 -0.836215 0
0.158171 -0.785887 0
0.316342 -0.748551 0
-0.836215 -0.349513 0
-0.748551 -0.316342 0
-0.883336 -0.176631 0
-0.785887 -0.158171 0
-0.883336 -0.176631 0
-0.785887 -0.158171 0
-0.911612 -9.71445e-17 0
-0.823223 -8.32667e-17 0
-0.911612 -9.71445e-17 0
-0.823223 -8.32667e-17 0
-0.883336 0.176631 0
-0.785887 0.158171 0
-0.883336 0.176631 0
-0.785887 0.158171 0
-0.836215 0.349513 0
-0.748551 0.316342 0
0.836215 -0.349513 0
0.883336 -0.176631 0
0.748551 -0.316342 0
0.785887 -0.158171 0
0.883336 -0.176631 0
0.911612 -9.71445e-17 0
0.785887 -0.158171 0
0.823223 -8.32667e-17 0
0.911612 -9.71445e-17 0
0.883336 0.176631 0
0.823223 -8.32667e-17 0
0.785887 0.158171 0
0.883336 0.176631 0
0.836215 0.349513 0
0.785887 0.158171 0
0.748551 0.316342 0
-0.349513 0.836215 0
-0.316342 0.748551 0
-0.176631 0.883336 0
-0.158171 0.785887 0
-0.176631 0.883336 0
-0.158171 0.785887 0
-9.71445e-17 0.911612 0
-8.32667e-17 0.823223 0
-9.71445e-17 0.911612 0
-8.32667e-17 0.823223 0
0.176631 0.883336 0
0.158171 0.785887 0
0.176631 0.883336 0
0.158171 0.785887 0
0.349513 0.836215 0
0.316342 0.748551 0
-0.5 -0.5 0
-0.375 -0.536612 0
-0.448223 -0.448223 0
-0.336167 -0.475682 0
-0.258502 -0.353823 0
-0.172335 -0.362976 0
-0.21967 -0.292893 0
-0.146447 -0.292893 0
0.375 -0.536612 0
0.5 -0.5 0
0.336167 -0.475682 0
0.448223 -0.448223 0
0.172335 -0.362976 0
0.258502 -0.353823 0
0.146447 -0.292893 0
0.21967 -0.292893 0
-0.5 -0.5 0
-0.448223 -0.448223 0
-0.536612 -0.375 0
-0.475682 -0.336167 0
-0.353823 -0.258502 0
-0.292893 -0.21967 0
-0.362976 -0.172335 0
-0.292893 -0.146447 0
-0.536612 0.375 0
-0.475682 0.336167 0
-0.5 0.5 0
-0.448223 0.448223 0
-0.362976 0.172335 0
-0.292893 0.146447 0
-0.353823 0.258502 0
-0.292893 0.21967 0
0.5 -0.5 0
0.536612 -0.375 0
0.448223 -0.448223 0
0.475682 -0.336167 0
0.353823 -0.258502 0
0.362976 -0.172335 0
0.292893 -0.21967 0
0.292893 -0.146447 0
0.536612 0.375 0
0.5 0.5 0
0.475682 0.336167 0
0.448223 0.448223 0
0.362976 0.172335 0
0.353823 0.258502 0
0.292893 0.146447 0
0.292893 0.21967 0
-0.5 0.5 0
-0.448223 0.448223 0
-0.375 0.536612 0
-0.336167 0.475682 0
-0.258502 0.353823 0
-0.21967 0.292893 0
-0.172335 0.362976 0
-0.146447 0.292893 0
0.375 0.536612 0
0.336167 0.475682 0
0.5 0.5 0
0.448223 0.448223 0
0.172335 0.362976 0
0.146447 0.292893 0
0.258502 0.353823 0
0.21967 0.292893 0
-0.65533 -0.65533 0
-0.507759 -0.753761 0
-0.603553 -0.603553 0
-0.459948 -0.676052 0
-0.507759 -0.753761 0
-0.349513 -0.836215 0
-0.459948 -0.676052 0
-0.316342 -0.748551 0
-0.603553 -0.603553 0
-0.459948 -0.676052 0
-0.551777 -0.551777 0
-0.417474 -0.606332 0
-0.459948 -0.676052 0
-0.316342 -0.748551 0
-0.417474 -0.606332 0
-0.283171 -0.660887 0
-0.551777 -0.551777 0
-0.417474 -0.606332 0
-0.5 -0.5 0
-0.375 -0.536612 0
-0.417474 -0.606332 0
-0.283171 -0.660887 0
-0.375 -0.536612 0
-0.25 -0.573223 0
0.349513 -0.836215 0
0.507759 -0.753761 0
0.316342 -0.748551 0
0.459948 -0.676052 0
0.507759 -0.753761 0
0.65533 -0.65533 0
0.459948 -0.676052 0
0.603553 -0.603553 0
0.316342 -0.748551 0
0.459948 -0.676052 0
0.283171 -0.660887 0
0.417474 -0.606332 0
0.459948 -0.676052 0
0.603553 -0.603553 0
0.417474 -0.606332 0
0.551777 -0.551777 0
0.283171 -0.660887 0
0.417474 -0.606332 0
0.25 -0.573223 0
0.375 -0.536612 0
0.417474 -0.606332 0
0.551777 -0.551777 0
0.375 -0.536612 0
0.5 -0.5 0
-0.65533 -0.65533 0
-0.603553 -0.603553 0
-0.753761 -0.507759 0
-0.676052 -0.459948 0
-0.753761 -0.507759 0
-0.676052 -0.459948 0
-0.836215 -0.349513 0
-0.748551 -0.316342 0
-0.603553 -0.603553 0
-0.551777 -0.551777 0
-0.676052 -0.459948 0
-0.606332 -0.417474 0
-0.551777 -0.551777 0
-0.5 -0.5 0
-0.606332 -0.417474 0
-0.536612 -0.375 0
-0.676052 -0.459948 0
-0.606332 -0.417474 0
-0.748551 -0.316342 0
-0.660887 -0.283171 0
-0.606332 -0.417474 0
-0.536612 -0.375 0
-0.660887 -0.283171 0
-0.573223 -0.25 0
-0.836215 0.349513 0
-0.748551 0.316342 0
-0.753761 0.507759 0
-0.676052 0.459948 0
-0.753761 0.507759 0
-0.676052 0.459948 0
-0.65533 0.65533 0
-0.603553 0.603553 0
-0.748551 0.316342 0
-0.660887 0.283171 0
-0.676052 0.459948 0
-0.606332 0.417474 0
-0.660887 0.283171 0
-0.573223 0.25 0
-0.606332 0.417474 0
-0.536612 0.375 0
-0.676052 0.459948 0
-0.606332 0.417474 0
-0.603553 0.603553 0
-0.551777 0.551777 0
-0.606332 0.417474 0
-0.536612 0.375 0
-0.551777 0.551777 0
-0.5 0.5 0
0.65533 -0.65533 0
0.753761 -0.507759 0
0.603553 -0.603553 0
0.676052 -0.459948 0
0.753761 -0.507759 0
0.836215 -0.349513 0
0.676052 -0.459948 0
0.748551 -0.316342 0
0.603553 -0.603553 0
0.676052 -0.459948 0
0.551777 -0.551777 0
0.606332 -0.417474 0
0.676052 -0.459948 0
0.748551 -0.316342 0
0.606332 -0.417474 0
0.660887 -0.283171 0
0.551777 -0.551777 0
0.606332 -0.417474 0
0.5 -0.5 0
0.536612 -0.375 0
0.606332 -0.417474 0
0.660887 -0.283171 0
0.536612 -0.375 0
0.573223 -0.25 0
0.836215 0.349513 0
0.753761 0.507759 0
0.748551 0.316342 0
0.676052 0.459948 0
0.753761 0.507759 0
0.65533 0.65533 0
0.676052 0.459948 0
0.603553 0.603553 0
0.748551 0.316342 0
0.676052 0.459948 0
0.660887 0.283171 0
0.606332 0.417474 0
0.676052 0.459948 0
0.603553 0.603553 0
0.606332 0.417474 0
0.551777 0.551777 0
0.660887 0.283171 0
0.606332 0.417474 0
0.573223 0.25 0
0.536612 0.375 0
0.606332 0.417474 0
0.551777 0.551777 0
0.536612 0.375 0
0.5 0.5 0
-0.65533 0.65533 0
-0.603553 0.603553 0
-0.507759 0.753761 0
-0.459948 0.676052 0
-0.507759 0.753761 0
-0.459948 0.676052 0
-0.349513 0.836215 0
-0.316342 0.748551 0
-0.603553 0.603553 0
-0.551777 0.551777 0
-0.459948 0.676052 0
-0.417474 0.606332 0
-0.551777 0.551777 0
-0.5 0.5 0
-0.417474 0.606332 0
-0.375 0.536612 0
-0.459948 0.676052 0
-0.417474 0.606332 0
-0.316342 0.748551 0
-0.283171 0.660887 0
-0.417474 0.606332 0
-0.375 0.536612 0
-0.283171 0.660887 0
-0.25 0.573223 0
0.349513 0.836215 0
0.316342 0.748551 0
0.507759 0.753761 0
0.459948 0.676052 0
0.507759 0.753761 0
0.459948 0.676052 0
0.65533 0.65533 0
0.603553 0.603553 0
0.316342 0.748551 0
0.283171 0.660887 0
0.459948 0.676052 0
0.417474 0.606332 0
0.283171 0.660887 0
0.25 0.573223 0
0.417474 0.606332 0
0.375 0.536612 0
[...]
POINT_DATA 7664
SCALARS solution double 1
LOOKUP_TABLE default
0.188439 0.188707 0.189243 0.189511 0.188439 0.189243 0.188707 0.189511 0.189243 0.189511 0.189511 0.189779 0.188707 0.188439 0.189511 0.189243 0.189511 0.189243 0.189779 0.189511 0.189243 0.188439 0.189511 0.188707 0.188707 0.189511 0.188439 0.189243 0.189511 0.189779 0.189243 0.189511 0.189243 0.189511 0.188439 0.188707 0.189779 0.189511 0.189511 0.189243 0.189511 0.188707 0.189243 0.188439 0.189511 0.189243 0.188707 0.188439 0.084493 0.0889335 0.120353 0.122829 0.0889335 0.0801683 0.122829 0.114596 0.120353 0.122829 0.151818 0.152717 0.122829 0.114596 0.152717 0.145113 0.0801683 0.0889335 0.114596 0.122829 0.0889335 0.084493 0.122829 0.120353 0.114596 0.122829 0.145113 0.152717 0.122829 0.120353 0.152717 0.151818 0.084493 0.120353 0.0889335 0.122829 0.120353 0.151818 0.122829 0.152717 0.0889335 0.122829 0.0801683 0.114596 0.122829 0.152717 0.114596 0.145113 0.0801683 0.114596 0.0889335 0.122829 0.114596 0.145113 0.122829 0.152717 0.0889335 0.122829 0.084493 0.120353 0.122829 0.152717 0.120353 0.151818 0.084493 0.0889335 0.120353 0.122829 0.0889335 0.0801683 0.122829 0.114596 0.120353 0.122829 0.151818 0.152717 0.122829 0.114596 0.152717 0.145113 0.0801683 0.0889335 0.114596 0.122829 0.0889335 0.084493 0.122829 0.120353 0.114596 0.122829 0.145113 0.152717 0.122829 0.120353 0.152717 0.151818 0.084493 0.120353 0.0889335 0.122829 0.120353 0.151818 0.122829 0.152717 0.0889335 0.122829 0.0801683 0.114596 0.122829 0.152717 0.114596 0.145113 0.0801683 0.114596 0.0889335 0.122829 0.114596 0.145113 0.122829 0.152717 0.0889335 0.122829 0.084493 0.120353 0.122829 0.152717 0.120353 0.151818 0.0442401 0.0467232 0.084493 0.0889335 0.0467232 0.0418347 0.0889335 0.0801683 0.0418347 0.0467232 0.0801683 0.0889335 0.0467232 0.0442401 0.0889335 0.084493 0.0442401 0.084493 0.0467232 0.0889335 0.0467232 0.0889335 0.0418347 0.0801683 0.0418347 0.0801683 0.0467232 0.0889335 0.0467232 0.0889335 0.0442401 0.084493 0.0442401 0.0467232 0.084493 0.0889335 0.0467232 0.0418347 0.0889335 0.0801683 0.0418347 0.0467232 0.0801683 0.0889335 0.0467232 0.0442401 0.0889335 0.084493 0.0442401 0.084493 0.0467232 0.0889335 0.0467232 0.0889335 0.0418347 0.0801683 0.0418347 0.0801683 0.0467232 0.0889335 0.0467232 0.0889335 0.0442401 0.084493 0.124596 0.142452 0.149144 0.164785 0.187382 0.187761 0.188105 0.188439 0.142452 0.124596 0.164785 0.149144 0.187761 0.187382 0.188439 0.188105 0.124596 0.149144 0.142452 0.164785 0.187382 0.188105 0.187761 0.188439 0.142452 0.164785 0.124596 0.149144 0.187761 0.188439 0.187382 0.188105 0.124596 0.142452 0.149144 0.164785 0.187382 0.187761 0.188105 0.188439 0.142452 0.124596 0.164785 0.149144 0.187761 0.187382 0.188439 0.188105 0.124596 0.149144 0.142452 0.164785 0.187382 0.188105 0.187761 0.188439 0.142452 0.164785 0.124596 0.149144 0.187761 0.188439 0.187382 0.188105 0.0348663 0.0431006 0.067456 0.0824444 0.0431006 0.0442401 0.0824444 0.084493 0.067456 0.0824444 0.0973661 0.114114 0.0824444 0.084493 0.114114 0.120353 0.0973661 0.114114 0.124596 0.142452 0.114114 0.120353 0.142452 0.151818 0.0442401 0.0431006 0.084493 0.0824444 0.0431006 0.0348663 0.0824444 0.067456 0.084493 0.0824444 0.120353 0.114114 0.0824444 0.067456 0.114114 0.0973661 0.120353 0.114114 0.151818 0.142452 0.114114 0.0973661 0.142452 0.124596 0.0348663 0.067456 0.0431006 0.0824444 0.0431006 0.0824444 0.0442401 0.084493 0.067456 0.0973661 0.0824444 0.114114 0.0973661 0.124596 0.114114 0.142452 0.0824444 0.114114 0.084493 0.120353 0.114114 0.142452 0.120353 0.151818 0.0442401 0.084493 0.0431006 0.0824444 0.0431006 0.0824444 0.0348663 0.067456 0.084493 0.120353 0.0824444 0.114114 0.120353 0.151818 0.114114 0.142452 0.0824444 0.114114 0.067456 0.0973661 0.114114 0.142452 0.0973661 0.124596 0.0348663 0.0431006 0.067456 0.0824444 0.0431006 0.0442401 0.0824444 0.084493 0.067456 0.0824444 0.0973661 0.114114 0.0824444 0.084493 0.114114 0.120353 0.0973661 0.114114 0.124596 0.142452 0.114114 0.120353 0.142452 0.151818 0.0442401 0.0431006 0.084493 0.0824444 0.0431006 0.0348663 0.0824444 0.067456 0.084493 0.0824444 0.120353 0.114114 0.0824444 0.067456 0.114114 0.0973661 0.120353 0.114114 0.151818 0.142452 0.114114 0.0973661 0.142452 0.124596 0.0348663 0.067456 0.0431006 0.0824444 0.0431006 0.0824444 0.0442401 0.084493 0.067456 0.0973661 0.0824444 0.114114 0.0973661 0.124596 0.114114 0.142452 0.0824444 0.114114 0.084493 0.120353 0.114114 0.142452 0.120353 0.151818 0.0442401 0.084493 0.0431006 0.0824444 0.0431006 0.0824444 0.0348663 0.067456 0.084493 0.120353 0.0824444 0.114114 0.120353 0.151818 0.114114 0.142452 0.0824444 0.114114 0.067456 0.0973661 0.114114 0.142452 0.0973661 0.124596 0.187761 0.187954 0.188439 0.18864 0.187954 0.187961 0.18864 0.188707 0.187961 0.187954 0.188707 0.18864 0.187954 0.187761 0.18864 0.188439 0.187761 0.188439 0.187954 0.18864 0.187954 0.18864 0.187961 0.188707 0.187961 0.188707 0.187954 0.18864 0.187954 0.18864 0.187761 0.188439 0.187761 0.187954 0.188439 0.18864 0.187954 0.187961 0.18864 0.188707 0.187961 0.187954 0.188707 0.18864 0.187954 0.187761 0.18864 0.188439 0.187761 0.188439 0.187954 0.18864 0.187954 0.18864 0.187961 0.188707 0.187961 0.188707 0.187954 0.18864 0.187954 0.18864 0.187761 0.188439 0.187639 0.188105 0.188105 0.188574 0.188105 0.188439 0.188574 0.188909 0.188105 0.188574 0.188439 0.188909 0.188574 0.188909 0.188909 0.189243 0.188439 0.188105 0.188909 0.188574 0.188105 0.187639 0.188574 0.188105 0.188909 0.188574 0.189243 0.188909 0.188574 0.188105 0.188909 0.188439 0.188439 0.188909 0.188105 0.188574 0.188909 0.189243 0.188574 0.188909 0.188105 0.188574 0.187639 0.188105 0.188574 0.188909 0.188105 0.188439 0.189243 0.188909 0.188909 0.188574 0.188909 0.188439 0.188574 0.188105 0.188909 0.188574 0.188439 0.188105 0.188574 0.188105 0.188105 0.187639 0.142452 0.148195 0.153942 0.159477 0.148195 0.151818 0.159477 0.163126 0.153942 0.159477 0.164785 0.170088 0.159477 0.163126 0.170088 0.173731 0.149144 0.157795 0.160412 0.16842 0.157795 0.164785 0.16842 0.174989 0.160412 0.16842 0.171002 0.178391 0.152717 0.149973 0.164806 0.162794 0.149973 0.145113 0.162794 0.158901 0.164806 0.162794 0.176097 0.17474 0.162794 0.158901 0.17474 0.171693 0.145113 0.149973 0.158901 0.162794 0.149973 0.152717 0.162794 0.164806 0.158901 0.162794 0.171693 0.17474 0.162794 0.164806 0.17474 0.176097 0.151818 0.148195 0.163126 0.159477 0.148195 0.142452 0.159477 0.153942 0.163126 0.159477 0.173731 0.170088 0.159477 0.153942 0.170088 0.164785 0.164785 0.157795 0.174989 0.16842 0.157795 0.149144 0.16842 0.160412 0.16842 0.160412 0.178391 0.171002 0.149144 0.160412 0.157795 0.16842 0.160412 0.171002 0.16842 0.178391 0.157795 0.16842 0.164785 0.174989 0.142452 0.153942 0.148195 0.159477 0.153942 0.164785 0.159477 0.170088 0.148195 0.159477 0.151818 0.163126 0.159477 0.170088 0.163126 0.173731 0.152717 0.164806 0.149973 0.162794 0.164806 0.176097 0.162794 0.17474 0.149973 0.162794 0.145113 0.158901 0.162794 0.17474 0.158901 0.171693 0.145113 0.158901 0.149973 0.162794 0.158901 0.171693 0.162794 0.17474 0.149973 0.162794 0.152717 0.164806 0.162794 0.17474 0.164806 0.176097 0.151818 0.163126 0.148195 0.159477 0.163126 0.173731 0.159477 0.170088 0.148195 0.159477 0.142452 0.153942 0.159477 0.170088 0.153942 0.164785 0.164785 0.174989 0.157795 0.16842 0.157795 0.16842 0.149144 0.160412 0.16842 0.178391 0.160412 0.171002 0.142452 0.148195 0.153942 0.159477 0.148195 0.151818 0.159477 0.163126 0.153942 0.159477 0.164785 0.170088 0.159477 0.163126 0.170088 0.173731 0.149144 0.157795 0.160412 0.16842 0.157795 0.164785 0.16842 0.174989 0.160412 0.16842 0.171002 0.178391 0.152717 0.149973 0.164806 0.162794 0.149973 0.145113 0.162794 0.158901 0.164806 0.162794 0.176097 0.17474 0.162794 0.158901 0.17474 0.171693 0.145113 0.149973 0.158901 0.162794 0.149973 0.152717 0.162794 0.164806 0.158901 0.162794 0.171693 0.17474 0.162794 0.164806 0.17474 0.176097 0.151818 0.148195 0.163126 0.159477 0.148195 0.142452 0.159477 0.153942 0.163126 0.159477 0.173731 0.170088 0.159477 0.153942 0.170088 0.164785 0.164785 0.157795 0.174989 0.16842 0.157795 0.149144 0.16842 0.160412 0.16842 0.160412 0.178391 0.171002 0.149144 0.160412 0.157795 0.16842 0.160412 0.171002 0.16842 0.178391 0.157795 0.16842 0.164785 0.174989 0.142452 0.153942 0.148195 0.159477 0.153942 0.164785 0.159477 0.170088 0.148195 0.159477 0.151818 0.163126 0.159477 0.170088 0.163126 0.173731 0.152717 0.164806 0.149973 0.162794 0.164806 0.176097 0.162794 0.17474 0.149973 0.162794 0.145113 0.158901 0.162794 0.17474 0.158901 0.171693 0.145113 0.158901 0.149973 0.162794 0.158901 0.171693 0.162794 0.17474 0.149973 0.162794 0.152717 0.164806 0.162794 0.17474 0.164806 0.176097 0.151818 0.163126 0.148195 0.159477 0.163126 0.173731 0.159477 0.170088 0.148195 0.159477 0.142452 0.153942 0.159477 0.170088 0.153942 0.164785 0.164785 0.174989 0.157795 0.16842 0.157795 0.16842 0.149144 0.160412 0.16842 0.178391 0.160412 0.171002 0 0 0.0224849 0.0241943 0 0 0.0241943 0.023791 0.0224849 0.0241943 0.0442401 0.0474876 0.0241943 0.023791 0.0474876 0.0467232 0 0 0.023791 0.0241943 0 0 0.0241943 0.0224849 0.023791 0.0241943 0.0467232 0.0474876 0.0241943 0.0224849 0.0474876 0.0442401 0 0.0224849 0 0.0241943 0.0224849 0.0442401 0.0241943 0.0474876 0 0.0241943 0 0.023791 0.0241943 0.0474876 0.023791 0.0467232 0 0.023791 0 0.0241943 0.023791 0.0467232 0.0241943 0.0474876 0 0.0241943 0 0.0224849 0.0241943 0.0474876 0.0224849 0.0442401 0 0 0.0224849 0.0241943 0 0 0.0241943 0.023791 0.0224849 0.0241943 0.0442401 0.0474876 0.0241943 0.023791 0.0474876 0.0467232 0 0 0.023791 0.0241943 0 0 0.0241943 0.0224849 0.023791 0.0241943 0.0467232 0.0474876 0.0241943 0.0224849 0.0474876 0.0442401 0 0.0224849 0 0.0241943 0.0224849 0.0442401 0.0241943 0.0474876 0 0.0241943 0 0.023791 0.0241943 0.0474876 0.023791 0.0467232 0 0.023791 0 0.0241943 0.023791 0.0467232 0.0241943 0.0474876 0 0.0241943 0 0.0224849 0.0241943 0.0474876 0.0224849 0.0442401 0.151818 0.153328 0.163126 0.164907 0.153328 0.152717 0.164907 0.164806 0.163126 0.164907 0.173731 0.175739 0.164907 0.164806 0.175739 0.176097 0.186969 0.187197 0.187382 0.187594 0.187197 0.187369 0.187594 0.187761 0.187125 0.187382 0.187523 0.18776 0.187247 0.187523 0.187639 0.187889 0.187523 0.18776 0.187889 0.188105 0.152717 0.153328 0.164806 0.164907 0.153328 0.151818 0.164907 0.163126 0.164806 0.164907 0.176097 0.175739 0.164907 0.163126 0.175739 0.173731 0.187369 0.187197 0.187761 0.187594 0.187197 0.186969 0.187594 0.187382 0.187382 0.187125 0.18776 0.187523 0.18776 0.187523 0.188105 0.187889 0.187523 0.187247 0.187889 0.187639 0.187247 0.187639 0.187523 0.187889 0.187125 0.187523 0.187382 0.18776 0.187523 0.187889 0.18776 0.188105 0.186969 0.187382 0.187197 0.187594 0.187197 0.187594 0.187369 0.187761 0.151818 0.163126 0.153328 0.164907 0.163126 0.173731 0.164907 0.175739 0.153328 0.164907 0.152717 0.164806 0.164907 0.175739 0.164806 0.176097 0.152717 0.164806 0.153328 0.164907 0.164806 0.176097 0.164907 0.175739 0.153328 0.164907 0.151818 0.163126 0.164907 0.175739 0.163126 0.173731 0.187369 0.187761 0.187197 0.187594 0.187197 0.187594 0.186969 0.187382 0.187382 0.18776 0.187125 0.187523 0.18776 0.188105 0.187523 0.187889 0.187523 0.187889 0.187247 0.187639 0.151818 0.153328 0.163126 0.164907 0.153328 0.152717 0.164907 0.164806 0.163126 0.164907 0.173731 0.175739 0.164907 0.164806 0.175739 0.176097 0.186969 0.187197 0.187382 0.187594 0.187197 0.187369 0.187594 0.187761 0.187125 0.187382 0.187523 0.18776 0.187247 0.187523 0.187639 0.187889 0.187523 0.18776 0.187889 0.188105 0.152717 0.153328 0.164806 0.164907 0.153328 0.151818 0.164907 0.163126 0.164806 0.164907 0.176097 0.175739 0.164907 0.163126 0.175739 0.173731 0.187369 0.187197 0.187761 0.187594 0.187197 0.186969 0.187594 0.187382 0.187382 0.187125 0.18776 0.187523 0.18776 0.187523 0.188105 0.187889 0.187523 0.187247 0.187889 0.187639 0.187247 0.187639 0.187523 0.187889 0.187125 0.187523 0.187382 0.18776 0.187523 0.187889 0.18776 0.188105 0.186969 0.187382 0.187197 0.187594 0.187197 0.187594 0.187369 0.187761 0.151818 0.163126 0.153328 0.164907 0.163126 0.173731 0.164907 0.175739 0.153328 0.164907 0.152717 0.164806 0.164907 0.175739 0.164806 0.176097 0.152717 0.164806 0.153328 0.164907 0.164806 0.176097 0.164907 0.175739 0.153328 0.164907 0.151818 0.163126 0.164907 0.175739 0.163126 0.173731 0.187369 0.187761 0.187197 0.187594 0.187197 0.187594 0.186969 0.187382 0.187382 0.18776 0.187125 0.187523 0.18776 0.188105 0.187523 0.187889 0.187523 0.187889 0.187247 0.187639 0.186941 0.187057 0.187369 0.187487 0.187057 0.187105 0.187487 0.18755 0.187369 0.187487 0.187761 0.187881 0.187487 0.18755 0.187881 0.187954 0.187105 0.187095 0.18755 0.187561 0.187095 0.187026 0.187561 0.187516 0.18755 0.187561 0.187954 0.187981 0.187561 0.187516 0.187981 0.187961 0.187026 0.187095 0.187516 0.187561 0.187095 0.187105 0.187561 0.18755 0.187516 0.187561 0.187961 0.187981 0.187561 0.18755 0.187981 0.187954 0.187105 0.187057 0.18755 0.187487 0.187057 0.186941 0.187487 0.187369 0.18755 0.187487 0.187954 0.187881 0.187487 0.187369 0.187881 0.187761 0.186941 0.187369 0.187057 0.187487 0.187369 0.187761 0.187487 0.187881 0.187057 0.187487 0.187105 0.18755 0.187487 0.187881 0.18755 0.187954 0.187105 0.18755 0.187095 0.187561 0.18755 0.187954 0.187561 0.187981 0.187095 0.187561 0.187026 0.187516 0.187561 0.187981 0.187516 0.187961 0.187026 0.187516 0.187095 0.187561 0.187516 0.187961 0.187561 0.187981 0.187095 0.187561 0.187105 0.18755 0.187561 0.187981 0.18755 0.187954 0.187105 0.18755 0.187057 0.187487 0.18755 0.187954 0.187487 0.187881 0.187057 0.187487 0.186941 0.187369 0.187487 0.187881 0.187369 0.187761 0.186941 0.187057 0.187369 0.187487 0.187057 0.187105 0.187487 0.18755 0.187369 0.187487 0.187761 0.187881 0.187487 0.18755 0.187881 0.187954 0.187105 0.187095 0.18755 0.187561 0.187095 0.187026 0.187561 0.187516 0.18755 0.187561 0.187954 0.187981 0.187561 0.187516 0.187981 0.187961 0.187026 0.187095 0.187516 0.187561 0.187095 0.187105 0.187561 0.18755 0.187516 0.187561 0.187961 0.187981 0.187561 0.18755 0.187981 0.187954 0.187105 0.187057 0.18755 0.187487 0.187057 0.186941 0.187487 0.187369 0.18755 0.187487 0.187954 0.187881 0.187487 0.187369 0.187881 0.187761 0.186941 0.187369 0.187057 0.187487 0.187369 0.187761 0.187487 0.187881 0.187057 0.187487 0.187105 0.18755 0.187487 0.187881 0.18755 0.187954 0.187105 0.18755 0.187095 0.187561 0.18755 0.187954 0.187561 0.187981 0.187095 0.187561 0.187026 0.187516 0.187561 0.187981 0.187516 0.187961 0.187026 0.187516 0.187095 0.187561 0.187516 0.187961 0.187561 0.187981 0.187095 0.187561 0.187105 0.18755 0.187561 0.187981 0.18755 0.187954 0.187105 0.18755 0.187057 0.187487 0.18755 0.187954 0.187487 0.187881 0.187057 0.187487 0.186941 0.187369 0.187487 0.187881 0.187369 0.187761 0 0 0.023791 0.023556 0 0 0.023556 0.021223 0.023791 0.023556 0.0467232 0.0462779 0.023556 0.021223 0.0462779 0.0418347 0 0 0.021223 0.023556 0 0 0.023556 0.023791 0.021223 0.023556 0.0418347 0.0462779 0.023556 0.023791 0.0462779 0.0467232 0 0.023791 0 0.023556 0.023791 0.0467232 0.023556 0.0462779 0 0.023556 0 0.021223 0.023556 0.0462779 0.021223 0.0418347 0 0.021223 0 0.023556 0.021223 0.0418347 0.023556 0.0462779 0 0.023556 0 0.023791 0.023556 0.0462779 0.023791 0.0467232 0 0 0.023791 0.023556 0 0 0.023556 0.021223 0.023791 0.023556 0.0467232 0.0462779 0.023556 0.021223 0.0462779 0.0418347 0 0 0.021223 0.023556 0 0 0.023556 0.023791 0.021223 0.023556 0.0418347 0.0462779 0.023556 0.023791 0.0462779 0.0467232 0 0.023791 0 0.023556 0.023791 0.0467232 0.023556 0.0462779 0 0.023556 0 0.021223 0.023556 0.0462779 0.021223 0.0418347 0 0.021223 0 0.023556 0.021223 0.0418347 0.023556 0.0462779 0 0.023556 0 0.023791 0.023556 0.0462779 0.023791 0.0467232 0 0 0.0175915 0.0207586 0 0 0.0207586 0.0218859 0.0175915 0.0207586 0.0348663 0.0409487 0.0207586 0.0218859 0.0409487 0.0431006 0 0 0.0218859 0.0232308 0 0 0.0232308 0.0224849 0.0218859 0.0232308 0.0431006 0.0456595 0.0232308 0.0224849 0.0456595 0.0442401 0 0 0.0224849 0.0232308 0 0 0.0232308 0.0218859 0.0224849 0.0232308 0.0442401 0.0456595 0.0232308 0.0218859 0.0456595 0.0431006 0 0 0.0218859 0.0207586 0 0 0.0207586 0.0175915 0.0218859 0.0207586 0.0431006 0.0409487 0.0207586 0.0175915 0.0409487 0.0348663 0 0.0175915 0 0.0207586 0.0175915 0.0348663 0.0207586 0.0409487 0 0.0207586 0 0.0218859 0.0207586 0.0409487 0.0218859 0.0431006 0 0.0218859 0 0.0232308 0.0218859 0.0431006 0.0232308 0.0456595 0 0.0232308 0 0.0224849 0.0232308 0.0456595 0.0224849 0.0442401 0 0.0224849 0 0.0232308 0.0224849 0.0442401 0.0232308 0.0456595 0 0.0232308 0 0.0218859 0.0232308 0.0456595 0.0218859 0.0431006 0 0.0218859 0 0.0207586 0.0218859 0.0431006 0.0207586 0.0409487 0 0.0207586 0 0.0175915 0.0207586 0.0409487 0.0175915 0.0348663 0 0 0.0175915 0.0207586 0 0 0.0207586 0.0218859 0.0175915 0.0207586 0.0348663 0.0409487 0.0207586 0.0218859 0.0409487 0.0431006 0 0 0.0218859 0.0232308 0 0 0.0232308 0.0224849 0.0218859 0.0232308 0.0431006 0.0456595 0.0232308 0.0224849 0.0456595 0.0442401 0 0 0.0224849 0.0232308 0 0 0.0232308 0.0218859 0.0224849 0.0232308 0.0442401 0.0456595 0.0232308 0.0218859 0.0456595 0.0431006 0 0 0.0218859 0.0207586 0 0 0.0207586 0.0175915 0.0218859 0.0207586 0.0431006 0.0409487 0.0207586 0.0175915 0.0409487 0.0348663 0 0.0175915 0 0.0207586 0.0175915 0.0348663 0.0207586 0.0409487 0 0.0207586 0 0.0218859 0.0207586 0.0409487 0.0218859 0.0431006 0 0.0218859 0 0.0232308 0.0218859 0.0431006 0.0232308 0.0456595 0 0.0232308 0 0.0224849 0.0232308 0.0456595 0.0224849 0.0442401 0 0.0224849 0 0.0232308 0.0224849 0.0442401 0.0232308 0.0456595 0 0.0232308 0 0.0218859 0.0232308 0.0456595 0.0218859 0.0431006 0 0.0218859 0 0.0207586 0.0218859 0.0431006 0.0207586 0.0409487 0 0.0207586 0 0.0175915 0.0207586 0.0409487 0.0175915 0.0348663 0.16842 0.171886 0.173487 0.176841 0.171886 0.174989 0.176841 0.179866 0.173487 0.176841 0.178391 0.18164 0.170088 0.172114 0.175139 0.177142 0.172114 0.173731 0.177142 0.178777 0.175139 0.177142 0.180012 0.181989 0.177142 0.178777 0.181989 0.183715 0.174989 0.177702 0.179866 0.182487 0.173731 0.174929 0.178777 0.179979 0.174929 0.175739 0.179979 0.180871 0.175739 0.176139 0.180871 0.181392 0.176139 0.176097 0.181392 0.181432 0.186693 0.186785 0.186941 0.187009 0.186785 0.186831 0.187009 0.187057 0.186831 0.186852 0.187057 0.187088 0.186852 0.186868 0.187088 0.187105 0.176097 0.175646 0.181432 0.181163 0.175646 0.17474 0.181163 0.1804 0.17474 0.173407 0.1804 0.1792 0.173407 0.171693 0.1792 0.177703 0.186868 0.186861 0.187105 0.187107 0.186861 0.186844 0.187107 0.187095 0.186844 0.186816 0.187095 0.18707 0.186816 0.186762 0.18707 0.187026 0.171002 0.174846 0.176037 0.179714 0.174846 0.178391 0.179714 0.183134 0.176037 0.179714 0.180891 0.184402 0.186767 0.186913 0.186982 0.187125 0.171693 0.173407 0.177703 0.1792 0.173407 0.17474 0.1792 0.1804 0.17474 0.175646 0.1804 0.181163 0.175646 0.176097 0.181163 0.181432 0.186762 0.186816 0.187026 0.18707 0.186816 0.186844 0.18707 0.187095 0.186844 0.186861 0.187095 0.187107 0.186861 0.186868 0.187107 0.187105 0.176097 0.176139 0.181432 0.181392 0.176139 0.175739 0.181392 0.180871 0.175739 0.174929 0.180871 0.179979 0.174929 0.173731 0.179979 0.178777 0.186868 0.186852 0.187105 0.187088 0.186852 0.186831 0.187088 0.187057 0.186831 0.186785 0.187057 0.187009 0.186785 0.186693 0.187009 0.186941 0.173731 0.172114 0.178777 0.177142 0.172114 0.170088 0.177142 0.175139 0.178777 0.177142 0.183715 0.181989 0.177142 0.175139 0.181989 0.180012 0.177702 0.174989 0.182487 0.179866 0.174989 0.171886 0.179866 0.176841 0.171886 0.16842 0.176841 0.173487 0.176841 0.173487 0.18164 0.178391 0.178391 0.174846 0.183134 0.179714 0.174846 0.171002 0.179714 0.176037 0.179714 0.176037 0.184402 0.180891 0.186913 0.186767 0.187125 0.186982 0.16842 0.173487 0.171886 0.176841 0.173487 0.178391 0.176841 0.18164 0.171886 0.176841 0.174989 0.179866 0.174989 0.179866 0.177702 0.182487 0.170088 0.175139 0.172114 0.177142 0.175139 0.180012 0