# vtk DataFile Version 3.0
#This file was generated by the deal.II library on 2018/12/12 at 9:09:35
ASCII
DATASET UNSTRUCTURED_GRID

POINTS 80 double
-0.707107 -0.707107 0
-1.11022e-16 -1 0
-0.5 -0.5 0
-5.55112e-17 -0.646447 0
-1.11022e-16 -1 0
0.707107 -0.707107 0
-5.55112e-17 -0.646447 0
0.5 -0.5 0
-0.5 -0.5 0
-5.55112e-17 -0.646447 0
-0.292893 -0.292893 0
0 -0.292893 0
-5.55112e-17 -0.646447 0
0.5 -0.5 0
0 -0.292893 0
0.292893 -0.292893 0
-0.707107 -0.707107 0
-0.5 -0.5 0
-1 -1.11022e-16 0
-0.646447 -5.55112e-17 0
-0.5 -0.5 0
-0.292893 -0.292893 0
-0.646447 -5.55112e-17 0
-0.292893 0 0
-1 -1.11022e-16 0
-0.646447 -5.55112e-17 0
-0.707107 0.707107 0
-0.5 0.5 0
-0.646447 -5.55112e-17 0
-0.292893 0 0
-0.5 0.5 0
-0.292893 0.292893 0
-0.292893 -0.292893 0
0 -0.292893 0
-0.292893 0 0
0 0 0
0 -0.292893 0
0.292893 -0.292893 0
0 0 0
0.292893 0 0
-0.292893 0 0
0 0 0
-0.292893 0.292893 0
0 0.292893 0
0 0 0
0.292893 0 0
0 0.292893 0
0.292893 0.292893 0
0.707107 -0.707107 0
1 -1.11022e-16 0
0.5 -0.5 0
0.646447 -5.55112e-17 0
1 -1.11022e-16 0
0.707107 0.707107 0
0.646447 -5.55112e-17 0
0.5 0.5 0
0.5 -0.5 0
0.646447 -5.55112e-17 0
0.292893 -0.292893 0
0.292893 0 0
0.646447 -5.55112e-17 0
0.5 0.5 0
0.292893 0 0
0.292893 0.292893 0
-0.707107 0.707107 0
-0.5 0.5 0
-1.11022e-16 1 0
-5.55112e-17 0.646447 0
-0.5 0.5 0
-0.292893 0.292893 0
-5.55112e-17 0.646447 0
0 0.292893 0
-1.11022e-16 1 0
-5.55112e-17 0.646447 0
0.707107 0.707107 0
0.5 0.5 0
-5.55112e-17 0.646447 0
0 0.292893 0
0.5 0.5 0
0.292893 0.292893 0

CELLS 20 100
4	0	1	3	2
4	4	5	7	6
4	8	9	11	10
4	12	13	15	14
4	16	17	19	18
4	20	21	23	22
4	24	25	27	26
4	28	29	31	30
4	32	33	35	34
4	36	37	39	38
4	40	41	43	42
4	44	45	47	46
4	48	49	51	50
4	52	53	55	54
4	56	57	59	58
4	60	61	63	62
4	64	65	67	66
4	68	69	71	70
4	72	73	75	74
4	76	77	79	78

CELL_TYPES 20
 9 9 9 9 9 9 9 9 9 9 9 9 9 9 9 9 9 9 9 9
POINT_DATA 80
SCALARS solution double 1
LOOKUP_TABLE default
0 0 0.0936981 0.123387 0 0 0.123387 0.0936981 0.0936981 0.123387 0.137507 0.137079 0.123387 0.0936981 0.137079 0.137507 0 0.0936981 0 0.123387 0.0936981 0.137507 0.123387 0.137079 0 0.123387 0 0.0936981 0.123387 0.137079 0.0936981 0.137507 0.137507 0.137079 0.137079 0.138418 0.137079 0.137507 0.138418 0.137079 0.137079 0.138418 0.137507 0.137079 0.138418 0.137079 0.137079 0.137507 0 0 0.0936981 0.123387 0 0 0.123387 0.0936981 0.0936981 0.123387 0.137507 0.137079 0.123387 0.0936981 0.137079 0.137507 0 0.0936981 0 0.123387 0.0936981 0.137507 0.123387 0.137079 0 0.123387 0 0.0936981 0.123387 0.137079 0.0936981 0.137507 
