# vtk DataFile Version 3.0
#This file was generated by the deal.II library on 2018/12/12 at 9:09:35
ASCII
DATASET UNSTRUCTURED_GRID

POINTS 176 double
-0.5 -0.5 0
-5.55112e-17 -0.646447 0
-0.292893 -0.292893 0
0 -0.292893 0
-5.55112e-17 -0.646447 0
0.5 -0.5 0
0 -0.292893 0
0.292893 -0.292893 0
-0.5 -0.5 0
-0.292893 -0.292893 0
-0.646447 -5.55112e-17 0
-0.292893 0 0
-0.646447 -5.55112e-17 0
-0.292893 0 0
-0.5 0.5 0
-0.292893 0.292893 0
-0.292893 -0.292893 0
0 -0.292893 0
-0.292893 0 0
0 0 0
0 -0.292893 0
0.292893 -0.292893 0
0 0 0
0.292893 0 0
-0.292893 0 0
0 0 0
-0.292893 0.292893 0
0 0.292893 0
0 0 0
0.292893 0 0
0 0.292893 0
0.292893 0.292893 0
0.5 -0.5 0
0.646447 -5.55112e-17 0
0.292893 -0.292893 0
0.292893 0 0
0.646447 -5.55112e-17 0
0.5 0.5 0
0.292893 0 0
0.292893 0.292893 0
-0.5 0.5 0
-0.292893 0.292893 0
-5.55112e-17 0.646447 0
0 0.292893 0
-5.55112e-17 0.646447 0
0 0.292893 0
0.5 0.5 0
0.292893 0.292893 0
-0.707107 -0.707107 0
-0.382683 -0.92388 0
-0.603553 -0.603553 0
-0.316342 -0.748551 0
-0.382683 -0.92388 0
-1.11022e-16 -1 0
-0.316342 -0.748551 0
-8.32667e-17 -0.823223 0
-0.603553 -0.603553 0
-0.316342 -0.748551 0
-0.5 -0.5 0
-0.25 -0.573223 0
-0.316342 -0.748551 0
-8.32667e-17 -0.823223 0
-0.25 -0.573223 0
-5.55112e-17 -0.646447 0
-1.11022e-16 -1 0
0.382683 -0.92388 0
-8.32667e-17 -0.823223 0
0.316342 -0.748551 0
0.382683 -0.92388 0
0.707107 -0.707107 0
0.316342 -0.748551 0
0.603553 -0.603553 0
-8.32667e-17 -0.823223 0
0.316342 -0.748551 0
-5.55112e-17 -0.646447 0
0.25 -0.573223 0
0.316342 -0.748551 0
0.603553 -0.603553 0
0.25 -0.573223 0
0.5 -0.5 0
-0.707107 -0.707107 0
-0.603553 -0.603553 0
-0.92388 -0.382683 0
-0.748551 -0.316342 0
-0.603553 -0.603553 0
-0.5 -0.5 0
-0.748551 -0.316342 0
-0.573223 -0.25 0
-0.92388 -0.382683 0
-0.748551 -0.316342 0
-1 -1.11022e-16 0
-0.823223 -8.32667e-17 0
-0.748551 -0.316342 0
-0.573223 -0.25 0
-0.823223 -8.32667e-17 0
-0.646447 -5.55112e-17 0
-1 -1.11022e-16 0
-0.823223 -8.32667e-17 0
-0.92388 0.382683 0
-0.748551 0.316342 0
-0.823223 -8.32667e-17 0
-0.646447 -5.55112e-17 0
-0.748551 0.316342 0
-0.573223 0.25 0
-0.92388 0.382683 0
-0.748551 0.316342 0
-0.707107 0.707107 0
-0.603553 0.603553 0
-0.748551 0.316342 0
-0.573223 0.25 0
-0.603553 0.603553 0
-0.5 0.5 0
0.707107 -0.707107 0
0.92388 -0.382683 0
0.603553 -0.603553 0
0.748551 -0.316342 0
0.92388 -0.382683 0
1 -1.11022e-16 0
0.748551 -0.316342 0
0.823223 -8.32667e-17 0
0.603553 -0.603553 0
0.748551 -0.316342 0
0.5 -0.5 0
0.573223 -0.25 0
0.748551 -0.316342 0
0.823223 -8.32667e-17 0
0.573223 -0.25 0
0.646447 -5.55112e-17 0
1 -1.11022e-16 0
0.92388 0.382683 0
0.823223 -8.32667e-17 0
0.748551 0.316342 0
0.92388 0.382683 0
0.707107 0.707107 0
0.748551 0.316342 0
0.603553 0.603553 0
0.823223 -8.32667e-17 0
0.748551 0.316342 0
0.646447 -5.55112e-17 0
0.573223 0.25 0
0.748551 0.316342 0
0.603553 0.603553 0
0.573223 0.25 0
0.5 0.5 0
-0.707107 0.707107 0
-0.603553 0.603553 0
-0.382683 0.92388 0
-0.316342 0.748551 0
-0.603553 0.603553 0
-0.5 0.5 0
-0.316342 0.748551 0
-0.25 0.573223 0
-0.382683 0.92388 0
-0.316342 0.748551 0
-1.11022e-16 1 0
-8.32667e-17 0.823223 0
-0.316342 0.748551 0
-0.25 0.573223 0
-8.32667e-17 0.823223 0
-5.55112e-17 0.646447 0
-1.11022e-16 1 0
-8.32667e-17 0.823223 0
0.382683 0.92388 0
0.316342 0.748551 0
-8.32667e-17 0.823223 0
-5.55112e-17 0.646447 0
0.316342 0.748551 0
0.25 0.573223 0
0.382683 0.92388 0
0.316342 0.748551 0
0.707107 0.707107 0
0.603553 0.603553 0
0.316342 0.748551 0
0.25 0.573223 0
0.603553 0.603553 0
0.5 0.5 0

CELLS 44 220
4	0	1	3	2
4	4	5	7	6
4	8	9	11	10
4	12	13	15	14
4	16	17	19	18
4	20	21	23	22
4	24	25	27	26
4	28	29	31	30
4	32	33	35	34
4	36	37	39	38
4	40	41	43	42
4	44	45	47	46
4	48	49	51	50
4	52	53	55	54
4	56	57	59	58
4	60	61	63	62
4	64	65	67	66
4	68	69	71	70
4	72	73	75	74
4	76	77	79	78
4	80	81	83	82
4	84	85	87	86
4	88	89	91	90
4	92	93	95	94
4	96	97	99	98
4	100	101	103	102
4	104	105	107	106
4	108	109	111	110
4	112	113	115	114
4	116	117	119	118
4	120	121	123	122
4	124	125	127	126
4	128	129	131	130
4	132	133	135	134
4	136	137	139	138
4	140	141	143	142
4	144	145	147	146
4	148	149	151	150
4	152	153	155	154
4	156	157	159	158
4	160	161	163	162
4	164	165	167	166
4	168	169	171	170
4	172	173	175	174

CELL_TYPES 44
 9 9 9 9 9 9 9 9 9 9 9 9 9 9 9 9 9 9 9 9 9 9 9 9 9 9 9 9 9 9 9 9 9 9 9 9 9 9 9 9 9 9 9 9
POINT_DATA 176
SCALARS solution double 1
LOOKUP_TABLE default
0.112192 0.143346 0.157985 0.15756 0.143346 0.112192 0.15756 0.157985 0.112192 0.157985 0.143346 0.15756 0.143346 0.15756 0.112192 0.157985 0.157985 0.15756 0.15756 0.158918 0.15756 0.157985 0.158918 0.15756 0.15756 0.158918 0.157985 0.15756 0.158918 0.15756 0.15756 0.157985 0.112192 0.143346 0.157985 0.15756 0.143346 0.112192 0.15756 0.157985 0.112192 0.157985 0.143346 0.15756 0.143346 0.15756 0.112192 0.157985 0 0 0.0601197 0.0786634 0 0 0.0786634 0.07554 0.0601197 0.0786634 0.112192 0.146584 0.0786634 0.07554 0.146584 0.143346 0 0 0.07554 0.0786634 0 0 0.0786634 0.0601197 0.07554 0.0786634 0.143346 0.146584 0.0786634 0.0601197 0.146584 0.112192 0 0.0601197 0 0.0786634 0.0601197 0.112192 0.0786634 0.146584 0 0.0786634 0 0.07554 0.0786634 0.146584 0.07554 0.143346 0 0.07554 0 0.0786634 0.07554 0.143346 0.0786634 0.146584 0 0.0786634 0 0.0601197 0.0786634 0.146584 0.0601197 0.112192 0 0 0.0601197 0.0786634 0 0 0.0786634 0.07554 0.0601197 0.0786634 0.112192 0.146584 0.0786634 0.07554 0.146584 0.143346 0 0 0.07554 0.0786634 0 0 0.0786634 0.0601197 0.07554 0.0786634 0.143346 0.146584 0.0786634 0.0601197 0.146584 0.112192 0 0.0601197 0 0.0786634 0.0601197 0.112192 0.0786634 0.146584 0 0.0786634 0 0.07554 0.0786634 0.146584 0.07554 0.143346 0 0.07554 0 0.0786634 0.07554 0.143346 0.0786634 0.146584 0 0.0786634 0 0.0601197 0.0786634 0.146584 0.0601197 0.112192 
