# vtk DataFile Version 3.0
#This file was generated by the deal.II library on 2018/12/4 at 0:47:16
ASCII
DATASET UNSTRUCTURED_GRID

POINTS 14320 double
0 0.125 0
0.03125 0.125 0
0 0.15625 0
0.03125 0.15625 0
0 0.15625 0
0.03125 0.15625 0
0 0.1875 0
0.03125 0.1875 0
0.03125 0.15625 0
0.0625 0.15625 0
0.03125 0.1875 0
0.0625 0.1875 0
0.3125 0 0
0.34375 0 0
0.3125 0.03125 0
0.34375 0.03125 0
0.3125 0.03125 0
0.34375 0.03125 0
0.3125 0.0625 0
0.34375 0.0625 0
0.34375 0.03125 0
0.375 0.03125 0
0.34375 0.0625 0
0.375 0.0625 0
0.375 0.25 0
0.40625 0.25 0
0.375 0.28125 0
0.40625 0.28125 0
0.375 0.28125 0
0.40625 0.28125 0
0.375 0.3125 0
0.40625 0.3125 0
0 0 0
0.03125 0 0
0 0.03125 0
0.03125 0.03125 0
0.03125 0 0
0.0625 0 0
0.03125 0.03125 0
0.0625 0.03125 0
0 0.03125 0
0.03125 0.03125 0
0 0.0625 0
0.03125 0.0625 0
0.03125 0.03125 0
0.0625 0.03125 0
0.03125 0.0625 0
0.0625 0.0625 0
0 0.09375 0
0.03125 0.09375 0
0 0.125 0
0.03125 0.125 0
0.96875 0.125 0
1 0.125 0
0.96875 0.15625 0
1 0.15625 0
0.9375 0.15625 0
0.96875 0.15625 0
0.9375 0.1875 0
0.96875 0.1875 0
0.96875 0.15625 0
1 0.15625 0
0.96875 0.1875 0
1 0.1875 0
0.3125 0.0625 0
0.34375 0.0625 0
0.3125 0.09375 0
0.34375 0.09375 0
0.34375 0.0625 0
0.375 0.0625 0
0.34375 0.09375 0
0.375 0.09375 0
0.3125 0.09375 0
0.34375 0.09375 0
0.3125 0.125 0
0.34375 0.125 0
0.34375 0.09375 0
0.375 0.09375 0
0.34375 0.125 0
0.375 0.125 0
0.59375 0.25 0
0.625 0.25 0
0.59375 0.28125 0
0.625 0.28125 0
0.0625 0.28125 0
0.09375 0.28125 0
0.0625 0.3125 0
0.09375 0.3125 0
0.375 0.1875 0
0.40625 0.1875 0
0.375 0.21875 0
0.40625 0.21875 0
0.375 0.21875 0
0.40625 0.21875 0
0.375 0.25 0
0.40625 0.25 0
0.90625 0.28125 0
0.9375 0.28125 0
0.90625 0.3125 0
0.9375 0.3125 0
0.65625 0 0
0.6875 0 0
0.65625 0.03125 0
0.6875 0.03125 0
0.625 0.03125 0
0.65625 0.03125 0
0.625 0.0625 0
0.65625 0.0625 0
0.65625 0.03125 0
0.6875 0.03125 0
0.65625 0.0625 0
0.6875 0.0625 0
0.25 0.28125 0
0.28125 0.28125 0
0.25 0.3125 0
0.28125 0.3125 0
0.9375 0 0
0.96875 0 0
0.9375 0.03125 0
0.96875 0.03125 0
0.96875 0 0
1 0 0
0.96875 0.03125 0
1 0.03125 0
0.9375 0.03125 0
0.96875 0.03125 0
0.9375 0.0625 0
0.96875 0.0625 0
0.96875 0.03125 0
1 0.03125 0
0.96875 0.0625 0
1 0.0625 0
0.96875 0.09375 0
1 0.09375 0
0.96875 0.125 0
1 0.125 0
0.71875 0.28125 0
0.75 0.28125 0
0.71875 0.3125 0
0.75 0.3125 0
0.25 0.375 0
0.28125 0.375 0
0.25 0.40625 0
0.28125 0.40625 0
0.25 0.40625 0
0.28125 0.40625 0
0.25 0.4375 0
0.28125 0.4375 0
0.625 0.0625 0
0.65625 0.0625 0
0.625 0.09375 0
0.65625 0.09375 0
0.65625 0.0625 0
0.6875 0.0625 0
0.65625 0.09375 0
0.6875 0.09375 0
0.625 0.09375 0
0.65625 0.09375 0
0.625 0.125 0
0.65625 0.125 0
0.65625 0.09375 0
0.6875 0.09375 0
0.65625 0.125 0
0.6875 0.125 0
0.40625 0.5625 0
0.4375 0.5625 0
0.40625 0.59375 0
0.4375 0.59375 0
0.40625 0.59375 0
0.4375 0.59375 0
0.40625 0.625 0
0.4375 0.625 0
0.4375 0.5625 0
0.46875 0.5625 0
0.4375 0.59375 0
0.46875 0.59375 0
0.4375 0.59375 0
0.46875 0.59375 0
0.4375 0.625 0
0.46875 0.625 0
0.46875 0.59375 0
0.5 0.59375 0
0.46875 0.625 0
0.5 0.625 0
0.375 0.40625 0
0.40625 0.40625 0
0.375 0.4375 0
0.40625 0.4375 0
0.40625 0.40625 0
0.4375 0.40625 0
0.40625 0.4375 0
0.4375 0.4375 0
0.375 0.4375 0
0.40625 0.4375 0
0.375 0.46875 0
0.40625 0.46875 0
0.40625 0.4375 0
0.4375 0.4375 0
0.40625 0.46875 0
0.4375 0.46875 0
0.375 0.46875 0
0.40625 0.46875 0
0.375 0.5 0
0.40625 0.5 0
0.40625 0.46875 0
0.4375 0.46875 0
0.40625 0.5 0
0.4375 0.5 0
0.4375 0.625 0
0.46875 0.625 0
0.4375 0.65625 0
0.46875 0.65625 0
0.46875 0.625 0
0.5 0.625 0
0.46875 0.65625 0
0.5 0.65625 0
0.4375 0.65625 0
0.46875 0.65625 0
0.4375 0.6875 0
0.46875 0.6875 0
0.375 0 0
0.40625 0 0
0.375 0.03125 0
0.40625 0.03125 0
0.375 0.03125 0
0.40625 0.03125 0
0.375 0.0625 0
0.40625 0.0625 0
0.375 0.0625 0
0.40625 0.0625 0
0.375 0.09375 0
0.40625 0.09375 0
0.375 0.09375 0
0.40625 0.09375 0
0.375 0.125 0
0.40625 0.125 0
0.5625 0.40625 0
0.59375 0.40625 0
0.5625 0.4375 0
0.59375 0.4375 0
0.59375 0.40625 0
0.625 0.40625 0
0.59375 0.4375 0
0.625 0.4375 0
0.5625 0.4375 0
0.59375 0.4375 0
0.5625 0.46875 0
0.59375 0.46875 0
0.59375 0.4375 0
0.625 0.4375 0
0.59375 0.46875 0
0.625 0.46875 0
0.5625 0.46875 0
0.59375 0.46875 0
0.5625 0.5 0
0.59375 0.5 0
0.59375 0.46875 0
0.625 0.46875 0
0.59375 0.5 0
0.625 0.5 0
0.71875 0.375 0
0.75 0.375 0
0.71875 0.40625 0
0.75 0.40625 0
0.71875 0.40625 0
0.75 0.40625 0
0.71875 0.4375 0
0.75 0.4375 0
0 0.3125 0
0.03125 0.3125 0
0 0.34375 0
0.03125 0.34375 0
0 0.34375 0
0.03125 0.34375 0
0 0.375 0
0.03125 0.375 0
0.0625 0.375 0
0.09375 0.375 0
0.0625 0.40625 0
0.09375 0.40625 0
0.0625 0.40625 0
0.09375 0.40625 0
0.0625 0.4375 0
0.09375 0.4375 0
0.0625 0.4375 0
0.09375 0.4375 0
0.0625 0.46875 0
0.09375 0.46875 0
0.0625 0.46875 0
0.09375 0.46875 0
0.0625 0.5 0
0.09375 0.5 0
0.09375 0.46875 0
0.125 0.46875 0
0.09375 0.5 0
0.125 0.5 0
0.53125 0.5625 0
0.5625 0.5625 0
0.53125 0.59375 0
0.5625 0.59375 0
0.5 0.59375 0
0.53125 0.59375 0
0.5 0.625 0
0.53125 0.625 0
0.53125 0.59375 0
0.5625 0.59375 0
0.53125 0.625 0
0.5625 0.625 0
0.5625 0.5625 0
0.59375 0.5625 0
0.5625 0.59375 0
0.59375 0.59375 0
0.5625 0.59375 0
0.59375 0.59375 0
0.5625 0.625 0
0.59375 0.625 0
0.0625 0.3125 0
0.09375 0.3125 0
0.0625 0.34375 0
0.09375 0.34375 0
0.0625 0.34375 0
0.09375 0.34375 0
0.0625 0.375 0
0.09375 0.375 0
0.09375 0.34375 0
0.125 0.34375 0
0.09375 0.375 0
0.125 0.375 0
0.5 0.625 0
0.53125 0.625 0
0.5 0.65625 0
0.53125 0.65625 0
0.53125 0.625 0
0.5625 0.625 0
0.53125 0.65625 0
0.5625 0.65625 0
0.53125 0.65625 0
0.5625 0.65625 0
0.53125 0.6875 0
0.5625 0.6875 0
0.21875 0.3125 0
0.25 0.3125 0
0.21875 0.34375 0
0.25 0.34375 0
0.21875 0.40625 0
0.25 0.40625 0
0.21875 0.4375 0
0.25 0.4375 0
0.21875 0.4375 0
0.25 0.4375 0
0.21875 0.46875 0
0.25 0.46875 0
0.21875 0.46875 0
0.25 0.46875 0
0.21875 0.5 0
0.25 0.5 0
0.75 0.40625 0
0.78125 0.40625 0
0.75 0.4375 0
0.78125 0.4375 0
0.75 0.4375 0
0.78125 0.4375 0
0.75 0.46875 0
0.78125 0.46875 0
0.75 0.46875 0
0.78125 0.46875 0
0.75 0.5 0
0.78125 0.5 0
0.3125 0.125 0
0.34375 0.125 0
0.3125 0.15625 0
0.34375 0.15625 0
0.34375 0.125 0
0.375 0.125 0
0.34375 0.15625 0
0.375 0.15625 0
0.3125 0.15625 0
0.34375 0.15625 0
0.3125 0.1875 0
0.34375 0.1875 0
0.34375 0.15625 0
0.375 0.15625 0
0.34375 0.1875 0
0.375 0.1875 0
0.375 0.125 0
0.40625 0.125 0
0.375 0.15625 0
0.40625 0.15625 0
0.375 0.15625 0
0.40625 0.15625 0
0.375 0.1875 0
0.40625 0.1875 0
0.90625 0.375 0
0.9375 0.375 0
0.90625 0.40625 0
0.9375 0.40625 0
0.90625 0.40625 0
0.9375 0.40625 0
0.90625 0.4375 0
0.9375 0.4375 0
0.90625 0.4375 0
0.9375 0.4375 0
0.90625 0.46875 0
0.9375 0.46875 0
0.90625 0.46875 0
0.9375 0.46875 0
0.90625 0.5 0
0.9375 0.5 0
0.75 0.3125 0
0.78125 0.3125 0
0.75 0.34375 0
0.78125 0.34375 0
0.125 0.53125 0
0.15625 0.53125 0
0.125 0.5625 0
0.15625 0.5625 0
0.15625 0.53125 0
0.1875 0.53125 0
0.15625 0.5625 0
0.1875 0.5625 0
0.21875 0.5 0
0.25 0.5 0
0.21875 0.53125 0
0.25 0.53125 0
0.1875 0.53125 0
0.21875 0.53125 0
0.1875 0.5625 0
0.21875 0.5625 0
0.21875 0.53125 0
0.25 0.53125 0
0.21875 0.5625 0
0.25 0.5625 0
0.125 0.5625 0
0.15625 0.5625 0
0.125 0.59375 0
0.15625 0.59375 0
0.15625 0.5625 0
0.1875 0.5625 0
0.15625 0.59375 0
0.1875 0.59375 0
0.125 0.59375 0
0.15625 0.59375 0
0.125 0.625 0
0.15625 0.625 0
0.15625 0.59375 0
0.1875 0.59375 0
0.15625 0.625 0
0.1875 0.625 0
0.15625 0.625 0
0.1875 0.625 0
0.15625 0.65625 0
0.1875 0.65625 0
0.15625 0.65625 0
0.1875 0.65625 0
0.15625 0.6875 0
0.1875 0.6875 0
0.90625 0.3125 0
0.9375 0.3125 0
0.90625 0.34375 0
0.9375 0.34375 0
0.875 0.34375 0
0.90625 0.34375 0
0.875 0.375 0
0.90625 0.375 0
0.90625 0.34375 0
0.9375 0.34375 0
0.90625 0.375 0
0.9375 0.375 0
0.15625 0.6875 0
0.1875 0.6875 0
0.15625 0.71875 0
0.1875 0.71875 0
0.15625 0.71875 0
0.1875 0.71875 0
0.15625 0.75 0
0.1875 0.75 0
0.96875 0.3125 0
1 0.3125 0
0.96875 0.34375 0
1 0.34375 0
0.96875 0.34375 0
1 0.34375 0
0.96875 0.375 0
1 0.375 0
0.59375 0 0
0.625 0 0
0.59375 0.03125 0
0.625 0.03125 0
0.59375 0.03125 0
0.625 0.03125 0
0.59375 0.0625 0
0.625 0.0625 0
0.59375 0.0625 0
0.625 0.0625 0
0.59375 0.09375 0
0.625 0.09375 0
0.59375 0.09375 0
0.625 0.09375 0
0.59375 0.125 0
0.625 0.125 0
0.59375 0.125 0
0.625 0.125 0
0.59375 0.15625 0
0.625 0.15625 0
0.5625 0.15625 0
0.59375 0.15625 0
0.5625 0.1875 0
0.59375 0.1875 0
0.59375 0.15625 0
0.625 0.15625 0
0.59375 0.1875 0
0.625 0.1875 0
0.5625 0.1875 0
0.59375 0.1875 0
0.5625 0.21875 0
0.59375 0.21875 0
0.59375 0.1875 0
0.625 0.1875 0
0.59375 0.21875 0
0.625 0.21875 0
0.59375 0.21875 0
0.625 0.21875 0
0.59375 0.25 0
0.625 0.25 0
0.625 0.125 0
0.65625 0.125 0
0.625 0.15625 0
0.65625 0.15625 0
0.65625 0.125 0
0.6875 0.125 0
0.65625 0.15625 0
0.6875 0.15625 0
0.625 0.15625 0
0.65625 0.15625 0
0.625 0.1875 0
0.65625 0.1875 0
0.65625 0.15625 0
0.6875 0.15625 0
0.65625 0.1875 0
0.6875 0.1875 0
0.625 0.1875 0
0.65625 0.1875 0
0.625 0.21875 0
0.65625 0.21875 0
0.65625 0.1875 0
0.6875 0.1875 0
0.65625 0.21875 0
0.6875 0.21875 0
0.625 0.21875 0
0.65625 0.21875 0
0.625 0.25 0
0.65625 0.25 0
0.65625 0.21875 0
0.6875 0.21875 0
0.65625 0.25 0
0.6875 0.25 0
0.75 0.5 0
0.78125 0.5 0
0.75 0.53125 0
0.78125 0.53125 0
0.78125 0.5 0
0.8125 0.5 0
0.78125 0.53125 0
0.8125 0.53125 0
0.75 0.53125 0
0.78125 0.53125 0
0.75 0.5625 0
0.78125 0.5625 0
0.78125 0.53125 0
0.8125 0.53125 0
0.78125 0.5625 0
0.8125 0.5625 0
0.8125 0.53125 0
0.84375 0.53125 0
0.8125 0.5625 0
0.84375 0.5625 0
0.84375 0.53125 0
0.875 0.53125 0
0.84375 0.5625 0
0.875 0.5625 0
0.625 0.25 0
0.65625 0.25 0
0.625 0.28125 0
0.65625 0.28125 0
0.65625 0.25 0
0.6875 0.25 0
0.65625 0.28125 0
0.6875 0.28125 0
0.65625 0.28125 0
0.6875 0.28125 0
0.65625 0.3125 0
0.6875 0.3125 0
0.8125 0.5625 0
0.84375 0.5625 0
0.8125 0.59375 0
0.84375 0.59375 0
0.84375 0.5625 0
0.875 0.5625 0
0.84375 0.59375 0
0.875 0.59375 0
0.8125 0.59375 0
0.84375 0.59375 0
0.8125 0.625 0
0.84375 0.625 0
0 0.625 0
0.03125 0.625 0
0 0.65625 0
0.03125 0.65625 0
0 0.65625 0
0.03125 0.65625 0
0 0.6875 0
0.03125 0.6875 0
0.875 0.5625 0
0.90625 0.5625 0
0.875 0.59375 0
[...]
POINT_DATA 14320
SCALARS U double 1
LOOKUP_TABLE default
0 0.213572 0 0.207516 0 0.207516 0 0.200934 0.207516 0.396968 0.200934 0.384341 0.163606 -0.0821989 0.157668 -0.0806724 0.157668 -0.0806724 0.15196 -0.0787556 -0.0806724 -0.311926 -0.0787556 -0.302774 -0.25455 -0.418467 -0.247429 -0.406285 -0.247429 -0.406285 -0.240728 -0.39453 0 0.243438 0 0.235824 0.243438 0.465911 0.235824 0.451215 0 0.235824 0 0.228667 0.235824 0.451215 0.228667 0.437163 0 0.220764 0 0.213572 0.213576 2.719e-16 0.20752 2.63535e-16 0.396977 0.20752 0.384351 0.20094 0.20752 2.63535e-16 0.20094 2.55427e-16 0.15196 -0.0787556 0.146487 -0.0769982 -0.0787556 -0.302774 -0.0769982 -0.294017 0.146487 -0.0769982 0.141196 -0.075321 -0.0769982 -0.294017 -0.075321 -0.285578 -0.418069 -0.254675 -0.406372 -0.247695 0.349348 0.485758 0.338089 0.469696 -0.269544 -0.444057 -0.261922 -0.431025 -0.261922 -0.431025 -0.25455 -0.418467 0.485785 0.349368 0.469729 0.338114 -0.0821989 0.163606 -0.0806578 0.157675 -0.311902 -0.0806578 -0.302723 -0.0787294 -0.0806578 0.157675 -0.0787294 0.151969 0.441169 0.292651 0.427819 0.283063 0.465911 0.243438 0.451217 0.235824 0.243438 3.08103e-16 0.235824 2.98624e-16 0.451217 0.235824 0.437167 0.228669 0.235824 2.98624e-16 0.228669 2.89436e-16 0.220766 2.80531e-16 0.213576 2.719e-16 0.292692 0.441201 0.283115 0.427855 0.399401 0.264438 0.387395 0.255483 0.387395 0.255483 0.374839 0.247436 -0.302723 -0.0787294 -0.293924 -0.0769866 -0.0787294 0.151969 -0.0769866 0.146485 -0.293924 -0.0769866 -0.285608 -0.075355 -0.0769866 0.146485 -0.075355 0.141171 -0.310742 -0.404545 -0.300997 -0.392062 -0.300997 -0.392062 -0.292025 -0.38003 -0.404545 -0.464034 -0.392062 -0.449816 -0.392062 -0.449816 -0.38003 -0.436072 -0.449816 -0.470455 -0.436072 -0.45534 -0.220796 -0.36156 -0.214559 -0.350392 -0.36156 -0.470872 -0.350392 -0.456506 -0.214559 -0.350392 -0.208404 -0.340105 -0.350392 -0.456506 -0.340105 -0.442576 -0.208404 -0.340105 -0.202332 -0.330567 -0.340105 -0.442576 -0.330567 -0.430439 -0.38003 -0.436072 -0.367517 -0.422197 -0.436072 -0.45534 -0.422197 -0.44164 -0.367517 -0.422197 -0.35625 -0.408969 -0.320925 -0.532014 -0.311926 -0.516191 -0.311926 -0.516191 -0.302774 -0.500805 -0.302774 -0.500805 -0.294017 -0.485885 -0.294017 -0.485885 -0.285578 -0.471465 -0.470874 -0.361571 -0.456508 -0.350394 -0.361571 -0.220807 -0.350394 -0.214559 -0.456508 -0.350394 -0.442577 -0.340104 -0.350394 -0.214559 -0.340104 -0.208399 -0.442577 -0.340104 -0.430439 -0.330566 -0.340104 -0.208399 -0.330566 -0.202326 0.26446 0.399415 0.25549 0.38739 0.25549 0.38739 0.24746 0.374808 0 0.17667 0 0.171115 0 0.171115 0 0.165702 0.317126 0.441568 0.306965 0.426457 0.306965 0.426457 0.297197 0.41314 0.297197 0.41314 0.288635 0.401401 0.288635 0.401401 0.279885 0.389242 0.401401 0.479323 0.389242 0.463995 -0.464036 -0.404549 -0.449819 -0.392069 -0.470455 -0.449819 -0.45534 -0.436078 -0.449819 -0.392069 -0.436078 -0.38004 -0.404549 -0.310745 -0.392069 -0.301005 -0.392069 -0.301005 -0.38004 -0.292038 0.338089 0.469696 0.327481 0.455986 0.327481 0.455986 0.317126 0.441568 0.455986 0.544845 0.441568 0.527572 -0.45534 -0.436078 -0.44164 -0.422204 -0.436078 -0.38004 -0.422204 -0.367531 -0.422204 -0.367531 -0.408977 -0.356267 0.535016 0.427819 0.517707 0.413177 0.485292 0.387395 0.469307 0.374839 0.469307 0.374839 0.454312 0.36191 0.454312 0.36191 0.439758 0.351477 0.38739 0.485269 0.374808 0.469233 0.374808 0.469233 0.362028 0.453971 0.362028 0.453971 0.351609 0.440853 0.141196 -0.075321 0.136084 -0.0737064 -0.075321 -0.285578 -0.0737064 -0.277426 0.136084 -0.0737064 0.131141 -0.0721465 -0.0737064 -0.277426 -0.0721465 -0.269544 -0.285578 -0.471465 -0.277426 -0.457556 -0.277426 -0.457556 -0.269544 -0.444057 0.441636 0.317172 0.426559 0.307039 0.426559 0.307039 0.413517 0.297148 0.413517 0.297148 0.400704 0.288453 0.400704 0.288453 0.388441 0.279718 0.427855 0.535047 0.413207 0.517733 0.449601 0.484712 0.435411 0.468861 0.484712 0.477181 0.468861 0.461714 0.439758 0.351477 0.427347 0.340654 0.477181 0.427347 0.461714 0.414506 0.427347 0.340654 0.414506 0.330288 0.435411 0.468861 0.421605 0.454087 0.468861 0.461714 0.454087 0.446161 0.421605 0.454087 0.409591 0.440178 0.454087 0.446161 0.440178 0.43249 0.440178 0.43249 0.425779 0.419147 0.425779 0.419147 0.412944 0.406201 0.469729 0.338114 0.456031 0.327516 0.544891 0.456031 0.527637 0.441636 0.456031 0.327516 0.441636 0.317172 0.412944 0.406201 0.400251 0.393746 0.400251 0.393746 0.389028 0.382784 0.176684 2.25413e-16 0.171133 2.18478e-16 0.171133 2.18478e-16 0.165724 2.11756e-16 -0.532014 -0.320925 -0.51616 -0.311902 -0.51616 -0.311902 -0.500729 -0.302723 -0.500729 -0.302723 -0.485744 -0.293924 -0.485744 -0.293924 -0.470958 -0.285608 -0.470958 -0.285608 -0.458236 -0.2776 -0.599592 -0.458236 -0.581168 -0.444642 -0.458236 -0.2776 -0.444642 -0.269881 -0.581168 -0.444642 -0.564399 -0.431711 -0.444642 -0.269881 -0.431711 -0.262132 -0.431711 -0.262132 -0.418069 -0.254675 -0.285608 -0.075355 -0.2776 -0.0738111 -0.075355 0.141171 -0.0738111 0.136034 -0.2776 -0.0738111 -0.269881 -0.0722845 -0.0738111 0.136034 -0.0722845 0.131078 -0.269881 -0.0722845 -0.262132 -0.0707552 -0.0722845 0.131078 -0.0707552 0.126304 -0.262132 -0.0707552 -0.254675 -0.069215 -0.0707552 0.126304 -0.069215 0.121775 0.351609 0.440853 0.340801 0.427213 0.440853 0.491255 0.427213 0.476662 0.340801 0.427213 0.33029 0.414442 0.427213 0.476662 0.414442 0.461773 0.476662 0.485071 0.461773 0.469167 0.485071 0.449582 0.469167 0.436299 -0.254675 -0.069215 -0.247695 -0.0676123 -0.069215 0.121775 -0.0676123 0.117607 -0.0676123 0.117607 -0.0657358 0.113438 0.461773 0.469167 0.446156 0.454609 0.469167 0.436299 0.454609 0.42275 0.446156 0.454609 0.432473 0.43936 0 0.128818 0 0.124429 0 0.124429 0 0.121059 0.436299 0.365698 0.42275 0.353752 0.365698 0.262762 0.353752 0.254393 0.42275 0.353752 0.408512 0.342543 0.353752 0.254393 0.342543 0.246364 0.2466 0.343277 0.238472 0.332064 0.343277 0.409591 0.332064 0.395945 0.238472 0.332064 0.231741 0.321828 0.332064 0.395945 0.321828 0.383922 0.432473 0.43936 0.41907 0.426061 0.41907 0.426061 0.406225 0.412973 0 0.200934 0 0.193919 0 0.193919 0 0.188034 0.406225 0.412973 0.393737 0.400255 0.393737 0.400255 0.38276 0.389014 0.321828 0.383922 0.311594 0.372035 0.311594 0.372035 0.302733 0.361753 0.408512 0.342543 0.396129 0.331842 0.342543 0.246364 0.331842 0.238723 0.396129 0.331842 0.383929 0.321822 0.331842 0.238723 0.321822 0.231551 0.246364 0.128775 0.238723 0.124786 0.128775 1.64916e-16 0.124786 1.59842e-16 0.124786 1.59842e-16 0.120897 1.54924e-16 0.383929 0.321822 0.372034 0.311558 0.372034 0.311558 0.361738 0.302711 0.20094 2.55427e-16 0.193925 2.47568e-16 0.193925 2.47568e-16 0.188042 2.39951e-16 0.351477 0.232016 0.340654 0.224365 0.232016 0.0911909 0.224365 0.088195 0.340654 0.224365 0.330288 0.217356 0.224365 0.088195 0.217356 0.0851504 -0.430439 -0.494621 -0.416344 -0.479078 -0.494621 -0.516503 -0.479078 -0.500389 -0.416344 -0.479078 -0.404545 -0.464034 -0.479078 -0.500389 -0.464034 -0.485434 -0.35625 -0.408969 -0.345119 -0.396474 -0.408969 -0.427875 -0.396474 -0.414088 -0.345119 -0.396474 -0.334308 -0.384254 -0.396474 -0.414088 -0.384254 -0.40128 0 0.15526 0 0.150959 0 0.150959 0 0.146085 0.150959 0.288635 0.146085 0.279885 -0.516503 -0.494621 -0.500389 -0.479079 -0.494621 -0.430439 -0.479079 -0.416345 -0.500389 -0.479079 -0.485434 -0.464036 -0.479079 -0.416345 -0.464036 -0.404549 0.0912256 0.232087 0.0882239 0.224421 0.232087 0.351609 0.224421 0.340801 0.0882239 0.224421 0.085164 0.217384 0.224421 0.340801 0.217384 0.33029 -0.427875 -0.408977 -0.414088 -0.396484 -0.408977 -0.356267 -0.396484 -0.345139 -0.414088 -0.396484 -0.40128 -0.384264 -0.396484 -0.345139 -0.384264 -0.334328 0.155234 1.98926e-16 0.1509 1.92806e-16 0.288453 0.1509 0.279718 0.146024 0.1509 1.92806e-16 0.146024 1.86874e-16 0 0.136983 0 0.132776 0.136983 0.262093 0.132776 0.253674 0 0.132776 0 0.128818 0.132776 0.253674 0.128818 0.2466 0.262762 0.137126 0.254393 0.132936 0.137126 1.75552e-16 0.132936 1.70151e-16 0.254393 0.132936 0.246364 0.128775 0.132936 1.70151e-16 0.128775 1.64916e-16 -0.274374 -0.210027 -0.265264 -0.202657 -0.210027 -0.127168 -0.202657 -0.122593 -0.265264 -0.202657 -0.256517 -0.195717 -0.202657 -0.122593 -0.195717 -0.118062 0.0648562 0.161234 0.0635533 0.156802 0.0635533 0.156802 0.0623394 0.153086 0 0.188034 0 0.182294 0 0.182294 0 0.17667 0.309318 0.203838 0.299699 0.19735 0.203838 0.079745 0.19735 0.0774193 0.299699 0.19735 0.290546 0.191375 0.19735 0.0774193 0.191375 0.0752098 0.290546 0.191375 0.281674 0.185842 0.191375 0.0752098 0.185842 0.0732029 0.281674 0.185842 0.274208 0.180695 0.185842 0.0732029 0.180695 0.0713029 0.361753 0.389028 0.350007 0.377177 0.389028 0.382784 0.377177 0.371325 0.350007 0.377177 0.339746 0.365807 0.377177 0.371325 0.365807 0.360186 0.382784 0.343954 0.371325 0.33313 0.343954 0.274208 0.33313 0.265673 0.371325 0.33313 0.360186 0.32318 0.33313 0.265673 0.32318 0.258045 0.339746 0.365807 0.329523 0.355077 0.365807 0.360186 0.355077 0.34958 0.329523 0.355077 0.32053 0.34478 0.355077 0.34958 0.34478 0.339458 0.360186 0.32318 0.34958 0.313749 0.32318 0.258045 0.313749 0.250656 0.34958 0.313749 0.339458 0.304716 0.313749 0.250656 0.304716 0.24357 0.131141 -0.0721465 0.126357 -0.0706293 -0.0721465 -0.269544 -0.0706293 -0.261922 0.126357 -0.0706293 0.121785 -0.0691342 -0.0706293 -0.261922 -0.0691342 -0.25455 0.268493 0.32053 0.260416 0.311135 0.260416 0.311135 0.252919 0.302204 0.188042 2.39951e-16 0.182304 2.32569e-16 0.182304 2.32569e-16 0.176684 2.25413e-16 0.252919 0.302204 0.245994 0.293715 0.32053 0.34478 0.311135 0.334904 0.34478 0.339458 0.334904 0.329742 0.311135 0.334904 0.302204 0.325328 0.334904 0.329742 0.325328 0.320386 0.339458 0.304716 0.329742 0.296108 0.304716 0.24357 0.296108 0.236668 0.329742 0.296108 0.320386 0.287823 0.296108 0.236668 0.287823 0.230599 0.302204 0.325328 0.293715 0.316044 0.325328 0.320386 0.316044 0.311337 0.293715 0.316044 0.285026 0.307025 0.316044 0.311337 0.307025 0.302582 0.320386 0.287823 0.311337 0.279842 0.287823 0.230599 0.279842 0.224221 0.311337 0.279842 0.302582 0.272082 0.279842 0.224221 0.272082 0.21815 0.0797285 0.203821 0.0773923 0.197323 0.203821 0.309298 0.197323 0.299673 0.0773923 0.197323 0.075173 0.191339 0.197323 0.299673 0.191339 0.290514 0.075173 0.191339 0.0731564 0.185797 0.191339 0.290514 0.185797 0.281636 0.0731564 0.185797 0.0712471 0.18064 0.185797 0.281636 0.18064 0.27416 0.27416 0.343917 0.265616 0.333084 0.343917 0.38276 0.333084 0.371291 0.265616 0.333084 0.257986 0.323132 0.333084 0.371291 0.323132 0.360148 0.38276 0.389014 0.371291 0.377152 0.389014 0.361738 0.377152 0.349988 0.371291 0.377152 0.360148 0.365778 0.377152 0.349988 0.365778 0.339723 0.257986 0.323132 0.250612 0.313715 0.323132 0.360148 0.313715 0.349549 0.250612 0.313715 0.243563 0.304744 0.313715 0.349549 0.304744 0.33944 0.360148 0.365778 0.349549 0.355046 0.365778 0.339723 0.355046 0.329496 0.349549 0.355046 0.33944 0.344742 0.355046 0.329496 0.344742 0.3205 0.243563 0.304744 0.237032 0.296231 0.304744 0.33944 0.296231 0.329678 0.296231 0.329678 0.287449 0.320298 0.33944 0.344742 0.329678 0.334857 0.344742 0.3205 0.334857 0.311102 0.329678 0.334857 0.320298 0.325275 0.334857 0.311102 0.325275 0.302174 0.287449 0.320298 0.279718 0.311249 0.279718 0.311249 0.272082 0.302582 0.320298 0.325275 0.311249 0.316008 0.325275 0.302174 0.316008 0.293696 0.311249 0.316008 0.302582 0.307025 0.316008 0.293696 0.307025 0.285026 0.3205 0.268473 0.311102 0.260395 0.311102 0.260395 0.302174 0.252902 0.121785 -0.0691342 0.117531 -0.0676765 -0.0691342 -0.25455 -0.0676765 -0.247429 0.117531 -0.0676765 0.113348 -0.0661552 -0.0676765 -0.247429 -0.0661552 -0.240728 0.302174 0.252902 0.293696 0.245984 0.113348 -0.0661552 0.109107 -0.0642638 0.109107 -0.0642638 0.105186 -0.0633402 -0.0657358 0.113438 -0.0643144 0.10918 -0.0643144 0.10918 -0.0633523 0.105195 0.105186 -0.0633402 0.101371 -0.0620274 -0.0633402 -0.226597 -0.0620274 -0.220796 0.101371 -0.0620274 0.0976302 -0.0607555 -0.0620274 -0.220796 -0.0607555 -0.214559 0.0976302 -0.0607555 0.0939924 -0.0593105 -0.0607555 -0.214559 -0.0593105 -0.208404 0.0939924 -0.0593105 0.0911909 -0.0577188 -0.0593105 -0.208404 -0.0577188 -0.202332 0.0911909 -0.0577188 0.088195 -0.0561275 -0.0577188 -0.202332 -0.0561275 -0.195829 0.088195 -0.0561275 0.0851504 -0.0546512 -0.0561275 -0.195829 -0.0546512 -0.190297 0.0851504 -0.0546512 0.0818702 -0.0531589 -0.0546512 -0.190297 -0.0531589 -0.184675 0.0818702 -0.0531589 0.079745 -0.0515327 -0.0531589 -0.184675 -0.0515327 -0.178925 0 0.113656 0 0.109782 0 0.109782 0 0.106954 0 0.106954 0 0.103714 0.106954 0.204612 0.103714 0.198569 0 0.103714 0 0.100669 -0.226635 -0.0633523 -0.220807 -0.0620297 -0.0633523 0.105195 -0.0620297 0.10138 -0.220807 -0.0620297 -0.214559 -0.0607479 -0.0620297 0.10138 -0.0607479 0.0976473 -0.214559 -0.0607479 -0.208399 -0.0592963 -0.0607479 0.0976473 -0.0592963 0.0940221 -0.208399 -0.0592963 -0.202326 -0.0577024 -0.0592963 0.0940221 -0.0577024 0.0912256 0 0.165702 0 0.160436 0 0.160436 0 0.15526 -0.202326 -0.0577024 -0.195825 -0.0561147 -0.0577024 0.0912256 -0.0561147 0.0882239 -0.195825 -0.0561147 -0.190298 -0.0546467 -0.0561147 0.0882239 -0.0546467 0.085164 -0.190298 -0.0546467 -0.184683 -0.0531649 -0.0546467 0.085164 -0.0531649 0.081867 -0.184683 -0.0531649 -0.178941 -0.051549 -0.0531649 0.081867 -0.051549 0.0797285 0.113636 1.45538e-16 0.109773 1.4106e-16 0.109773 1.4106e-16 0.106948 1.3672e-16 0.204601 0.106948 0.198557 0.103708 0.106948 1.3672e-16 0.103708 1.32514e-16 0.103708 1.32514e-16 0.100664 1.28437e-16 0.165724 2.11756e-16 0.160448 2.05241e-16 0.160448 2.05241e-16 0.155234 1.98926e-16 0 0.146085 0 0.140842 0 0.140842 0 0.136983 0.180695 0.0713029 0.175167 0.0695356 0.175167 0.0695356 0.170424 0.0678687 0.0713029 -0.0444281 0.0695356 -0.0426177 -0.0444281 -0.156775 -0.0426177 -0.151467 0.0695356 -0.0426177 0.0678687 -0.0408043 -0.0426177 -0.151467 -0.0408043 -0.146294 0.170424 0.0678687 0.165756 0.0663587 0.165756 0.0663587 0.161281 0.0649313 0.0678687 -0.0408043 0.0663587 -0.0389999 -0.0408043 -0.146294 -0.0389999 -0.141265 0.0663587 -0.0389999 0.0649313 -0.0372006 -0.0389999 -0.141265 -0.0372006 -0.136366 0.161281 0.0649313 0.156895 0.0636506 0.156895 0.0636506 0.153256 0.0624465 0.0649313 -0.0372006 0.0636506 -0.0354153 -0.0372006 -0.136366 -0.0354153 -0.131594 0.0636506 -0.0354153 0.0624465 -0.0336497 -0.0354153 -0.131594 -0.0336497 -0.126951 0.230599 0.153256 0.224221 0.149228 0.153256 0.0624465 0.149228 0.0613154 0.224221 0.149228 0.21815 0.145431 0.149228 0.0613154 0.145431 0.0601874 0.0624465 -0.0336497 0.0613154 -0.0319238 -0.0336497 -0.126951 -0.0319238 -0.12244 0.0613154 -0.0319238 0.0601874 -0.0302393 -0.0319238 -0.12244 -0.0302393 -0.118062 0.146024 1.86874e-16 0.140858 1.81125e-16 0.140858 1.81125e-16 0.137126 1.75552e-16 -0.156818 -0.0444793 -0.15151 -0.0426736 -0.0444793 0.0712471 -0.0426736 0.0694724 -0.15151 -0.0426736 -0.146331 -0.0408593 -0.0426736 0.0694724 -0.0408593 0.0678021 0.0712471 0.18064 0.0694724 0.175104 0.0694724 0.175104 0.0678021 0.170357 -0.146331 -0.0408593 -0.14128 -0.0390474 -0.0408593 0.0678021 -0.0390474 0.066293 -0.14128 -0.0390474 -0.136338 -0.037233 -0.0390474 0.066293 -0.037233 0.0648562 0.0678021 0.170357 0.066293 0.165694 0.066293 0.165694 0.0648562 0.161234 -0.136338 -0.037233 -0.131442 -0.0354798 -0.037233 0.0648562 -0.0354798 0.0635533 -0.131442 -0.0354798 -0.127168 -0.0337389 -0.0354798 0.0635533 -0.0337389 0.0623394 0.079745 -0.0515327 0.0774193 -0.0497652 -0.0515327 -0.178925 -0.0497652 -0.173186 0.0774193 -0.0497652 0.0752098 -0.0480023 -0.0497652 -0.173186 -0.0480023 -0.167622 0.0752098 -0.0480023 0.0732029 -0.0462279 -0.0480023 -0.167622 -0.0462279 -0.16217 0.0732029 -0.0462279 0.0713029 -0.0444281 -0.0462279 -0.16217 -0.0444281 -0.156775 -0.178941 -0.051549 -0.173209 -0.049791 -0.051549 0.0797285 -0.049791 0.0773923 -0.173209 -0.049791 -0.167653 -0.0480373 -0.049791 0.0773923 -0.0480373 0.075173 -0.167653 -0.0480373 -0.162207 -0.0462715 -0.0480373 0.075173 -0.0462715 0.0731564 -0.162207 -0.0462715 -0.156818 -0.0444793 -0.0462715 0.0731564 -0.0444793 0.0712471 0 0.121059 0 0.117249 0.121059 0.231741 0.117249 0.22401 0 0.117249 0 0.113656 0.117249 0.22401 0.113656 0.217518 0.231551 0.120897 0.223948 0.117193 0.120897 1.54924e-16 0.117193 1.50158e-16 0.223948 0.117193 0.21749 0.113636 0.117193 1.50158e-16 0.113636 1.45538e-16 -0.127168 -0.0337389 -0.122593 -0.0320089 -0.0337389 0.0623394 -0.0320089 0.0612406 -0.122593 -0.0320089 -0.118062 -0.0302393 -0.0320089 0.0612406 -0.0302393 0.0601874 0.0623394 0.153086 0.0612406 0.149135 0.153086 0.23041 0.149135 0.224086 0.0612406 0.149135 0.0601874 0.145431 0.149135 0.224086 0.145431 0.21815 0 0.100669 0 0.0977952 0.100669 0.192844 0.0977952 0.187174 0 0.0977952 0 0.0949623 0.0977952 0.187174 0.0949623 0.181779 0 0.0949623 0 0.092218 0.0949623 0.181779 0.092218 0.176525 0 0.092218 0 0.0895558 0.092218 0.176525 0.0895558 0.171399 0.192832 0.100664 0.187162 0.0977902 0.100664 1.28437e-16 0.0977902 1.24485e-16 0.187162 0.0977902 0.18177 0.0949582 0.0977902 1.24485e-16 0.0949582 1.20655e-16 0.18177 0.0949582 0.17652 0.0922158 0.0949582 1.20655e-16 0.0922158 1.16943e-16 0.17652 0.0922158 0.171399 0.0895558 0.0922158 1.16943e-16 0.0895558 1.13345e-16 0.213572 0.314834 0.210544 0.309661 0.314834 0.409201 0.309661 0.402495 0.210544 0.309661 0.207516 0.302242 0.309661 0.402495 0.302242 0.396968 0.396968 0.479433 0.390654 0.471633 0.390654 0.471633 0.384341 0.464066 0.384341 0.464066 0.377331 0.456531 0.377331 0.456531 0.371481 0.449115 0.371481 0.449115 0.365594 0.441851 0.365594 0.441851 0.359746 0.434947 0.465911 0.563181 0.458563 0.554225 0.563181 0.64826 0.554225 0.637929 0.458563 0.554225 0.451215 0.54541 0.554225 0.637929 0.54541 0.627752 0.64826 0.719307 0.637929 0.707822 0.719307 0.774782 0.707822 0.762187 0.637929 0.707822 0.627752 0.696527 0.707822 0.762187 0.696527 0.750388 0.451215 0.54541 0.444189 0.536703 0.54541 0.627752 0.536703 0.6177 0.444189 0.536703 0.437163 0.527996 0.536703 0.6177 0.527996 0.607762 0.627752 0.696527 0.6177 0.68541 0.696527 0.750388 0.68541 0.738327 0.6177 0.68541 0.607762 0.674398 0.68541 0.738327 0.674398 0.726439 0.479444 0.396977 0.471645 0.390664 0.471645 0.390664 0.464079 0.384351 0.437163 0.527996 0.429223 0.519405 0.527996 0.607762 0.519405 0.597941 0.429223 0.519405 0.422564 0.51096 0.519405 0.597941 0.51096 0.588285 0.464079 0.384351 0.456545 0.377343 0.456545 0.377343 0.449131 0.371494 0.449131 0.371494 0.441868 0.365608 0.441868 0.365608 0.434966 0.359762 0.607762 0.674398 0.597941 0.663537 0.674398 0.726439 0.663537 0.714789 0.597941 0.663537 0.588285 0.652801 0.663537 0.714789 0.652801 0.703297 -0.550544 -0.582595 -0.542204 -0.573719 -0.582595 -0.602025 -0.573719 -0.592919 -0.602025 -0.608544 -0.592919 -0.599368 -0.542204 -0.573719 -0.533936 -0.565002 -0.533936 -0.565002 -0.526174 -0.556542 -0.573719 -0.592919 -0.565002 -0.584067 -0.592919 -0.599368 -0.584067 -0.59035 0.359746 0.434947 0.353778 0.427735 0.434947 0.500756 0.427735 0.492419 0.353778 0.427735 0.349348 0.417553 0.427735 0.492419 0.417553 0.485758 0.422564 0.51096 0.415849 0.502785 0.51096 0.588285 0.502785 0.578815 0.415849 0.502785 0.409201 0.494751 0.502785 0.578815 0.494751 0.569564 0.6597 0.600549 0.648882 0.590653 0.588285 0.652801 0.578815 0.642263 0.652801 0.703297 0.642263 0.691572 0.578815 0.642263 0.569564 0.631937 0.642263 0.691572 0.631937 0.680587 0.750388 0.788153 0.738327 0.775202 0.788153 0.808262 0.775202 0.795001 0.738327 0.775202 0.726439 0.762719 0.775202 0.795001 0.762719 0.782585 0.500777 0.434966 0.492443 0.427756 0.434966 0.359762 0.427756 0.353795 0.492443 0.427756 0.485785 0.417576 0.427756 0.353795 0.417576 0.349368 0.822504 0.789596 0.809264 0.776884 0.789596 0.739595 0.776884 0.727669 0.809264 0.776884 0.796237 0.764379 0.776884 0.727669 0.764379 0.715949 0.739595 0.673584 0.727669 0.662683 0.673584 0.592992 0.662683 0.583335 0.727669 0.662683 0.715