# vtk DataFile Version 3.0
#This file was generated by the deal.II library on 2018/12/4 at 0:47:15
ASCII
DATASET UNSTRUCTURED_GRID

POINTS 1552 double
0.625 0.875 0
0.75 0.875 0
0.625 1 0
0.75 1 0
0.25 0.625 0
0.375 0.625 0
0.25 0.75 0
0.375 0.75 0
0.125 0.75 0
0.25 0.75 0
0.125 0.875 0
0.25 0.875 0
0 0.875 0
0.125 0.875 0
0 1 0
0.125 1 0
0.125 0.875 0
0.25 0.875 0
0.125 1 0
0.25 1 0
0.625 0.625 0
0.75 0.625 0
0.625 0.75 0
0.75 0.75 0
0.75 0.75 0
0.875 0.75 0
0.75 0.875 0
0.875 0.875 0
0.75 0.875 0
0.875 0.875 0
0.75 1 0
0.875 1 0
0.875 0.875 0
1 0.875 0
0.875 1 0
1 1 0
0 0.125 0
0.0625 0.125 0
0 0.1875 0
0.0625 0.1875 0
0.0625 0.125 0
0.125 0.125 0
0.0625 0.1875 0
0.125 0.1875 0
0 0.1875 0
0.0625 0.1875 0
0 0.25 0
0.0625 0.25 0
0.0625 0.1875 0
0.125 0.1875 0
0.0625 0.25 0
0.125 0.25 0
0.25 0 0
0.3125 0 0
0.25 0.0625 0
0.3125 0.0625 0
0.3125 0 0
0.375 0 0
0.3125 0.0625 0
0.375 0.0625 0
0.25 0.0625 0
0.3125 0.0625 0
0.25 0.125 0
0.3125 0.125 0
0.3125 0.0625 0
0.375 0.0625 0
0.3125 0.125 0
0.375 0.125 0
0.375 0.25 0
0.4375 0.25 0
0.375 0.3125 0
0.4375 0.3125 0
0.4375 0.25 0
0.5 0.25 0
0.4375 0.3125 0
0.5 0.3125 0
0.375 0.3125 0
0.4375 0.3125 0
0.375 0.375 0
0.4375 0.375 0
0 0 0
0.0625 0 0
0 0.0625 0
0.0625 0.0625 0
0 0.0625 0
0.0625 0.0625 0
0 0.125 0
0.0625 0.125 0
0.625 0 0
0.6875 0 0
0.625 0.0625 0
0.6875 0.0625 0
0.6875 0 0
0.75 0 0
0.6875 0.0625 0
0.75 0.0625 0
0.625 0.0625 0
0.6875 0.0625 0
0.625 0.125 0
0.6875 0.125 0
0.6875 0.0625 0
0.75 0.0625 0
0.6875 0.125 0
0.75 0.125 0
0.875 0.125 0
0.9375 0.125 0
0.875 0.1875 0
0.9375 0.1875 0
0.9375 0.125 0
1 0.125 0
0.9375 0.1875 0
1 0.1875 0
0.875 0.1875 0
0.9375 0.1875 0
0.875 0.25 0
0.9375 0.25 0
0.9375 0.1875 0
1 0.1875 0
0.9375 0.25 0
1 0.25 0
0.5 0.25 0
0.5625 0.25 0
0.5 0.3125 0
0.5625 0.3125 0
0.5625 0.25 0
0.625 0.25 0
0.5625 0.3125 0
0.625 0.3125 0
0.5625 0.3125 0
0.625 0.3125 0
0.5625 0.375 0
0.625 0.375 0
0 0.25 0
0.0625 0.25 0
0 0.3125 0
0.0625 0.3125 0
0.0625 0.25 0
0.125 0.25 0
0.0625 0.3125 0
0.125 0.3125 0
0 0.3125 0
0.0625 0.3125 0
0 0.375 0
0.0625 0.375 0
0.125 0.25 0
0.1875 0.25 0
0.125 0.3125 0
0.1875 0.3125 0
0.1875 0.25 0
0.25 0.25 0
0.1875 0.3125 0
0.25 0.3125 0
0.25 0.125 0
0.3125 0.125 0
0.25 0.1875 0
0.3125 0.1875 0
0.3125 0.125 0
0.375 0.125 0
0.3125 0.1875 0
0.375 0.1875 0
0.25 0.1875 0
0.3125 0.1875 0
0.25 0.25 0
0.3125 0.25 0
0.3125 0.1875 0
0.375 0.1875 0
0.3125 0.25 0
0.375 0.25 0
0.375 0.1875 0
0.4375 0.1875 0
0.375 0.25 0
0.4375 0.25 0
0.75 0.25 0
0.8125 0.25 0
0.75 0.3125 0
0.8125 0.3125 0
0.8125 0.25 0
0.875 0.25 0
0.8125 0.3125 0
0.875 0.3125 0
0.875 0.25 0
0.9375 0.25 0
0.875 0.3125 0
0.9375 0.3125 0
0.9375 0.25 0
1 0.25 0
0.9375 0.3125 0
1 0.3125 0
0.9375 0.3125 0
1 0.3125 0
0.9375 0.375 0
1 0.375 0
0.25 0.25 0
0.3125 0.25 0
0.25 0.3125 0
0.3125 0.3125 0
0.3125 0.25 0
0.375 0.25 0
0.3125 0.3125 0
0.375 0.3125 0
0.25 0.3125 0
0.3125 0.3125 0
0.25 0.375 0
0.3125 0.375 0
0.3125 0.3125 0
0.375 0.3125 0
0.3125 0.375 0
0.375 0.375 0
0.625 0.125 0
0.6875 0.125 0
0.625 0.1875 0
0.6875 0.1875 0
0.6875 0.125 0
0.75 0.125 0
0.6875 0.1875 0
0.75 0.1875 0
0.625 0.1875 0
0.6875 0.1875 0
0.625 0.25 0
0.6875 0.25 0
0.6875 0.1875 0
0.75 0.1875 0
0.6875 0.25 0
0.75 0.25 0
0.9375 0 0
1 0 0
0.9375 0.0625 0
1 0.0625 0
0.9375 0.0625 0
1 0.0625 0
0.9375 0.125 0
1 0.125 0
0.625 0.25 0
0.6875 0.25 0
0.625 0.3125 0
0.6875 0.3125 0
0.6875 0.25 0
0.75 0.25 0
0.6875 0.3125 0
0.75 0.3125 0
0.625 0.3125 0
0.6875 0.3125 0
0.625 0.375 0
0.6875 0.375 0
0.6875 0.3125 0
0.75 0.3125 0
0.6875 0.375 0
0.75 0.375 0
0 0.625 0
0.0625 0.625 0
0 0.6875 0
0.0625 0.6875 0
0 0.6875 0
0.0625 0.6875 0
0 0.75 0
0.0625 0.75 0
0.9375 0.625 0
1 0.625 0
0.9375 0.6875 0
1 0.6875 0
0.9375 0.6875 0
1 0.6875 0
0.9375 0.75 0
1 0.75 0
0.25 0.375 0
0.3125 0.375 0
0.25 0.4375 0
0.3125 0.4375 0
0.3125 0.375 0
0.375 0.375 0
0.3125 0.4375 0
0.375 0.4375 0
0.25 0.4375 0
0.3125 0.4375 0
0.25 0.5 0
0.3125 0.5 0
0.3125 0.4375 0
0.375 0.4375 0
0.3125 0.5 0
0.375 0.5 0
0.3125 0.5 0
0.375 0.5 0
0.3125 0.5625 0
0.375 0.5625 0
0.25 0.5625 0
0.3125 0.5625 0
0.25 0.625 0
0.3125 0.625 0
0.3125 0.5625 0
0.375 0.5625 0
0.3125 0.625 0
0.375 0.625 0
0.375 0.5 0
0.4375 0.5 0
0.375 0.5625 0
0.4375 0.5625 0
0.375 0.5625 0
0.4375 0.5625 0
0.375 0.625 0
0.4375 0.625 0
0.4375 0.5625 0
0.5 0.5625 0
0.4375 0.625 0
0.5 0.625 0
0.375 0.375 0
0.4375 0.375 0
0.375 0.4375 0
0.4375 0.4375 0
0.4375 0.375 0
0.5 0.375 0
0.4375 0.4375 0
0.5 0.4375 0
0.375 0.4375 0
0.4375 0.4375 0
0.375 0.5 0
0.4375 0.5 0
0.4375 0.4375 0
0.5 0.4375 0
0.4375 0.5 0
0.5 0.5 0
0.375 0.625 0
0.4375 0.625 0
0.375 0.6875 0
0.4375 0.6875 0
0.4375 0.625 0
0.5 0.625 0
0.4375 0.6875 0
0.5 0.6875 0
0.375 0.6875 0
0.4375 0.6875 0
0.375 0.75 0
0.4375 0.75 0
0 0.75 0
0.0625 0.75 0
0 0.8125 0
0.0625 0.8125 0
0.0625 0.75 0
0.125 0.75 0
0.0625 0.8125 0
0.125 0.8125 0
0 0.8125 0
0.0625 0.8125 0
0 0.875 0
0.0625 0.875 0
0.0625 0.8125 0
0.125 0.8125 0
0.0625 0.875 0
0.125 0.875 0
0.5 0.375 0
0.5625 0.375 0
0.5 0.4375 0
0.5625 0.4375 0
0.5625 0.375 0
0.625 0.375 0
0.5625 0.4375 0
0.625 0.4375 0
0.5 0.4375 0
0.5625 0.4375 0
0.5 0.5 0
0.5625 0.5 0
0.5625 0.4375 0
0.625 0.4375 0
0.5625 0.5 0
0.625 0.5 0
0.625 0.375 0
0.6875 0.375 0
0.625 0.4375 0
0.6875 0.4375 0
0.6875 0.375 0
0.75 0.375 0
0.6875 0.4375 0
0.75 0.4375 0
0.625 0.4375 0
0.6875 0.4375 0
0.625 0.5 0
0.6875 0.5 0
0.6875 0.4375 0
0.75 0.4375 0
0.6875 0.5 0
0.75 0.5 0
0 0.375 0
0.0625 0.375 0
0 0.4375 0
0.0625 0.4375 0
0.0625 0.375 0
0.125 0.375 0
0.0625 0.4375 0
0.125 0.4375 0
0 0.4375 0
0.0625 0.4375 0
0 0.5 0
0.0625 0.5 0
0.0625 0.4375 0
0.125 0.4375 0
0.0625 0.5 0
0.125 0.5 0
0.5625 0.5 0
0.625 0.5 0
0.5625 0.5625 0
0.625 0.5625 0
0.5 0.5625 0
0.5625 0.5625 0
0.5 0.625 0
0.5625 0.625 0
0.5625 0.5625 0
0.625 0.5625 0
0.5625 0.625 0
0.625 0.625 0
0.625 0.5 0
0.6875 0.5 0
0.625 0.5625 0
0.6875 0.5625 0
0.625 0.5625 0
0.6875 0.5625 0
0.625 0.625 0
0.6875 0.625 0
0.6875 0.5625 0
0.75 0.5625 0
0.6875 0.625 0
0.75 0.625 0
0.5 0.625 0
0.5625 0.625 0
0.5 0.6875 0
0.5625 0.6875 0
0.5625 0.625 0
0.625 0.625 0
0.5625 0.6875 0
0.625 0.6875 0
0.5625 0.6875 0
0.625 0.6875 0
0.5625 0.75 0
0.625 0.75 0
0.125 0.375 0
0.1875 0.375 0
0.125 0.4375 0
0.1875 0.4375 0
0.1875 0.375 0
0.25 0.375 0
0.1875 0.4375 0
0.25 0.4375 0
0.125 0.4375 0
0.1875 0.4375 0
0.125 0.5 0
0.1875 0.5 0
0.1875 0.4375 0
0.25 0.4375 0
0.1875 0.5 0
0.25 0.5 0
0.75 0.375 0
0.8125 0.375 0
0.75 0.4375 0
0.8125 0.4375 0
0.8125 0.375 0
0.875 0.375 0
0.8125 0.4375 0
0.875 0.4375 0
0.75 0.4375 0
0.8125 0.4375 0
0.75 0.5 0
0.8125 0.5 0
0.8125 0.4375 0
0.875 0.4375 0
0.8125 0.5 0
0.875 0.5 0
0.875 0.75 0
0.9375 0.75 0
0.875 0.8125 0
0.9375 0.8125 0
0.9375 0.75 0
1 0.75 0
0.9375 0.8125 0
1 0.8125 0
0.875 0.8125 0
0.9375 0.8125 0
0.875 0.875 0
0.9375 0.875 0
0.9375 0.8125 0
1 0.8125 0
0.9375 0.875 0
1 0.875 0
0.875 0.375 0
0.9375 0.375 0
0.875 0.4375 0
0.9375 0.4375 0
0.9375 0.375 0
1 0.375 0
0.9375 0.4375 0
1 0.4375 0
0.875 0.4375 0
0.9375 0.4375 0
0.875 0.5 0
0.9375 0.5 0
0.9375 0.4375 0
1 0.4375 0
0.9375 0.5 0
1 0.5 0
0 0.5 0
0.0625 0.5 0
0 0.5625 0
0.0625 0.5625 0
0.0625 0.5 0
0.125 0.5 0
0.0625 0.5625 0
0.125 0.5625 0
0 0.5625 0
0.0625 0.5625 0
0 0.625 0
0.0625 0.625 0
0.0625 0.5625 0
0.125 0.5625 0
0.0625 0.625 0
0.125 0.625 0
0.125 0.5 0
0.1875 0.5 0
0.125 0.5625 0
0.1875 0.5625 0
0.1875 0.5 0
0.25 0.5 0
0.1875 0.5625 0
0.25 0.5625 0
0.125 0.5625 0
0.1875 0.5625 0
0.125 0.625 0
0.1875 0.625 0
0.1875 0.5625 0
0.25 0.5625 0
0.1875 0.625 0
0.25 0.625 0
0.125 0.625 0
0.1875 0.625 0
0.125 0.6875 0
0.1875 0.6875 0
0.1875 0.625 0
0.25 0.625 0
0.1875 0.6875 0
0.25 0.6875 0
0.125 0.6875 0
0.1875 0.6875 0
0.125 0.75 0
0.1875 0.75 0
0.1875 0.6875 0
0.25 0.6875 0
0.1875 0.75 0
0.25 0.75 0
0.25 0.75 0
0.3125 0.75 0
0.25 0.8125 0
0.3125 0.8125 0
0.3125 0.75 0
0.375 0.75 0
0.3125 0.8125 0
0.375 0.8125 0
0.25 0.8125 0
0.3125 0.8125 0
0.25 0.875 0
0.3125 0.875 0
0.3125 0.8125 0
0.375 0.8125 0
0.3125 0.875 0
0.375 0.875 0
0.375 0.75 0
0.4375 0.75 0
0.375 0.8125 0
0.4375 0.8125 0
0.4375 0.75 0
0.5 0.75 0
0.4375 0.8125 0
0.5 0.8125 0
0.375 0.8125 0
0.4375 0.8125 0
0.375 0.875 0
0.4375 0.875 0
0.4375 0.8125 0
0.5 0.8125 0
0.4375 0.875 0
0.5 0.875 0
0.25 0.875 0
0.3125 0.875 0
0.25 0.9375 0
0.3125 0.9375 0
0.3125 0.875 0
0.375 0.875 0
0.3125 0.9375 0
0.375 0.9375 0
0.25 0.9375 0
0.3125 0.9375 0
0.25 1 0
0.3125 1 0
0.3125 0.9375 0
0.375 0.9375 0
0.3125 1 0
0.375 1 0
0.375 0.875 0
0.4375 0.875 0
0.375 0.9375 0
0.4375 0.9375 0
0.4375 0.875 0
0.5 0.875 0
0.4375 0.9375 0
0.5 0.9375 0
0.375 0.9375 0
0.4375 0.9375 0
0.375 1 0
0.4375 1 0
0.4375 0.9375 0
0.5 0.9375 0
0.4375 1 0
0.5 1 0
0.75 0.5 0
0.8125 0.5 0
0.75 0.5625 0
0.8125 0.5625 0
0.8125 0.5 0
0.875 0.5 0
0.8125 0.5625 0
0.875 0.5625 0
0.75 0.5625 0
0.8125 0.5625 0
0.75 0.625 0
0.8125 0.625 0
0.8125 0.5625 0
0.875 0.5625 0
0.8125 0.625 0
0.875 0.625 0
0.875 0.5 0
0.9375 0.5 0
0.875 0.5625 0
0.9375 0.5625 0
0.9375 0.5 0
1 0.5 0
0.9375 0.5625 0
1 0.5625 0
0.875 0.5625 0
0.9375 0.5625 0
0.875 0.625 0
0.9375 0.625 0
0.9375 0.5625 0
1 0.5625 0
0.9375 0.625 0
1 0.625 0
0.75 0.625 0
0.8125 0.625 0
0.75 0.6875 0
0.8125 0.6875 0
0.8125 0.625 0
0.875 0.625 0
0.8125 0.6875 0
0.875 0.6875 0
0.75 0.6875 0
0.8125 0.6875 0
0.75 0.75 0
0.8125 0.75 0
0.8125 0.6875 0
0.875 0.6875 0
0.8125 0.75 0
0.875 0.75 0
0.5 0.75 0
0.5625 0.75 0
0.5 0.8125 0
0.5625 0.8125 0
0.5625 0.75 0
0.625 0.75 0
0.5625 0.8125 0
0.625 0.8125 0
0.5 0.8125 0
0.5625 0.8125 0
0.5 0.875 0
0.5625 0.875 0
0.5625 0.8125 0
0.625 0.8125 0
0.5625 0.875 0
0.625 0.875 0
0.625 0.75 0
0.6875 0.75 0
0.625 0.8125 0
0.6875 0.8125 0
0.6875 0.75 0
0.75 0.75 0
0.6875 0.8125 0
0.75 0.8125 0
0.625 0.8125 0
0.6875 0.8125 0
0.625 0.875 0
0.6875 0.875 0
0.6875 0.8125 0
0.75 0.8125 0
0.6875 0.875 0
0.75 0.875 0
0.5 0.875 0
0.5625 0.875 0
0.5 0.9375 0
0.5625 0.9375 0
0.5625 0.875 0
0.625 0.875 0
0.5625 0.9375 0
0.625 0.9375 0
0.5 0.9375 0
0.5625 0.9375 0
0.5 1 0
0.5625 1 0
0.5625 0.9375 0
0.625 0.9375 0
0.5625 1 0
0.625 1 0
0.4375 0.3125 0
0.46875 0.3125 0
0.4375 0.34375 0
0.46875 0.34375 0
[...]
POINT_DATA 1552
SCALARS U double 1
LOOKUP_TABLE default
-0.140901 0.257695 -0.128407 0.237266 0.310195 -0.187554 0.288865 -0.163918 0.382431 0.288865 0.342458 0.255217 0 0.342458 0 0.310003 0.342458 0.255217 0.310003 0.237266 -0.187501 0.310301 -0.163624 0.288785 0.288785 0.382798 0.257695 0.342739 0.257695 0.342739 0.237266 0.310003 0.342739 1.39691e-16 0.310003 1.23277e-16 0 0.438216 0 0.406889 0.438216 0.727649 0.406889 0.672099 0 0.406889 0 0.378822 0.406889 0.672099 0.378822 0.631482 0.644956 0.177943 0.595718 0.162773 0.177943 -0.349048 0.162773 -0.325987 0.595718 0.162773 0.550939 0.147974 0.162773 -0.325987 0.147974 -0.304526 -0.274913 -0.585645 -0.259551 -0.547514 -0.585645 -0.705394 -0.547514 -0.660357 -0.259551 -0.547514 -0.24442 -0.512322 0 0.506738 0 0.467162 0 0.467162 0 0.438216 -0.349048 0.177943 -0.326098 0.162695 0.177943 0.644956 0.162695 0.595784 -0.326098 0.162695 -0.305759 0.148459 0.162695 0.595784 0.148459 0.55108 0.727665 0.43822 0.672118 0.406893 0.43822 2.95726e-16 0.406893 2.77809e-16 0.672118 0.406893 0.631497 0.378826 0.406893 2.77809e-16 0.378826 2.60978e-16 -0.705394 -0.588052 -0.660357 -0.547845 -0.588052 -0.275297 -0.547845 -0.259823 -0.547845 -0.259823 -0.512386 -0.244486 0 0.378822 0 0.351783 0.378822 0.631482 0.351783 0.588282 0 0.351783 0 0.326775 0.631482 0.67261 0.588282 0.622305 0.67261 0.477667 0.622305 0.441336 0.550939 0.147974 0.509136 0.13485 0.147974 -0.304526 0.13485 -0.291595 0.509136 0.13485 0.477667 0.122483 0.13485 -0.291595 0.122483 -0.274913 -0.291595 -0.619347 -0.274913 -0.585645 0.477833 0.672663 0.441429 0.622337 0.672663 0.631497 0.622337 0.588291 0.631497 0.378826 0.588291 0.351785 0.378826 2.60978e-16 0.351785 2.45166e-16 0.351785 2.45166e-16 0.326776 2.30312e-16 0.477667 0.122483 0.441336 0.111757 0.122483 -0.274913 0.111757 -0.259551 0.441336 0.111757 0.40849 0.101629 0.111757 -0.259551 0.101629 -0.24442 -0.305759 0.148459 -0.287199 0.135383 0.148459 0.55108 0.135383 0.509359 -0.287199 0.135383 -0.275297 0.123078 0.135383 0.509359 0.123078 0.477833 0.506738 3.35102e-16 0.467164 3.14799e-16 0.467164 3.14799e-16 0.43822 2.95726e-16 -0.275297 0.123078 -0.259823 0.11178 0.123078 0.477833 0.11178 0.441429 -0.259823 0.11178 -0.244486 0.101605 0.11178 0.441429 0.101605 0.4085 0 0.25082 0 0.234361 0 0.234361 0 0.227359 0.250852 1.79367e-16 0.234436 1.685e-16 0.234436 1.685e-16 0.227474 1.58291e-16 0.40849 0.101629 0.380286 0.0929433 0.101629 -0.24442 0.0929433 -0.230147 0.380286 0.0929433 0.353857 0.0854844 0.0929433 -0.230147 0.0854844 -0.2169 0.0854844 -0.2169 0.0785555 -0.205105 0.329333 0.0785555 0.310195 0.0613206 0.0785555 -0.205105 0.0613206 -0.187554 -0.2169 -0.451207 -0.205105 -0.423775 -0.205105 -0.423775 -0.187554 -0.398619 -0.423775 -0.510396 -0.398619 -0.476924 -0.24442 -0.512322 -0.230147 -0.481547 -0.512322 -0.617787 -0.481547 -0.576202 -0.230147 -0.481547 -0.2169 -0.451207 -0.481547 -0.576202 -0.451207 -0.543091 -0.187554 -0.398619 -0.175736 -0.371817 -0.398619 -0.476924 -0.371817 -0.448504 -0.175736 -0.371817 -0.163918 -0.347625 0 0.227359 0 0.21274 0.227359 0.382431 0.21274 0.362445 0 0.21274 0 0.171229 0.21274 0.362445 0.171229 0.342458 -0.617787 -0.512386 -0.576202 -0.481561 -0.512386 -0.244486 -0.481561 -0.230164 -0.576202 -0.481561 -0.543091 -0.451207 -0.481561 -0.230164 -0.451207 -0.216899 -0.244486 0.101605 -0.230164 0.0929322 0.101605 0.4085 0.0929322 0.380282 -0.230164 0.0929322 -0.216899 0.0854874 0.0929322 0.380282 0.0854874 0.353862 0 0.326775 0 0.30497 0.326775 0.546344 0.30497 0.506752 0 0.30497 0 0.284323 0.30497 0.506752 0.284323 0.472208 -0.451207 -0.216899 -0.423762 -0.205083 -0.510396 -0.423762 -0.476924 -0.398575 -0.423762 -0.205083 -0.398575 -0.187501 -0.216899 0.0854874 -0.205083 0.0785857 -0.205083 0.0785857 -0.187501 0.0613999 0.0785857 0.329365 0.0613999 0.310301 -0.476924 -0.398575 -0.448504 -0.371719 -0.398575 -0.187501 -0.371719 -0.175563 -0.371719 -0.175563 -0.347489 -0.163624 0.546344 0.577198 0.506752 0.534832 0.577198 0.40849 0.534832 0.380286 0.506752 0.534832 0.472208 0.498089 0.534832 0.380286 0.498089 0.353857 0.4085 0.57721 0.380282 0.534832 0.57721 0.546347 0.534832 0.506752 0.380282 0.534832 0.353862 0.498094 0.534832 0.506752 0.498094 0.472213 0.382798 0.227474 0.362768 0.212873 0.227474 1.58291e-16 0.212873 1.48701e-16 0.362768 0.212873 0.342739 0.171369 0.212873 1.48701e-16 0.171369 1.39691e-16 0.546347 0.326776 0.506752 0.30497 0.326776 2.30312e-16 0.30497 2.16358e-16 0.506752 0.30497 0.472213 0.284325 0.30497 2.16358e-16 0.284325 2.0325e-16 0 0.284323 0 0.266212 0.284323 0.472208 0.266212 0.441852 0 0.266212 0 0.25082 0.266212 0.441852 0.25082 0.415291 0.472208 0.498089 0.441852 0.465797 0.498089 0.353857 0.465797 0.329333 0.441852 0.465797 0.415291 0.436978 0.465797 0.329333 0.436978 0.310195 0.415291 0.436978 0.383266 0.409025 0.436978 0.310195 0.409025 0.29953 0.383266 0.409025 0.382431 0.335648 0.409025 0.29953 0.335648 0.288865 0.288865 0.0624731 0.272041 0.068689 0.0624731 -0.163918 0.068689 -0.154947 0.272041 0.068689 0.255217 0.0669255 0.068689 -0.154947 0.0669255 -0.143958 -0.163918 -0.347625 -0.154947 -0.325983 -0.347625 -0.419363 -0.325983 -0.390594 -0.154947 -0.325983 -0.143958 -0.306203 -0.325983 -0.390594 -0.306203 -0.367126 0.255217 0.0669255 0.246241 0.065666 0.0669255 -0.143958 0.065666 -0.135248 0.246241 0.065666 0.237266 0.0654615 0.065666 -0.135248 0.0654615 -0.128407 -0.143958 -0.306203 -0.135248 -0.290404 -0.306203 -0.367126 -0.290404 -0.348781 -0.135248 -0.290404 -0.128407 -0.278995 -0.290404 -0.348781 -0.278995 -0.335545 0.353862 0.498094 0.329365 0.465826 0.498094 0.472213 0.465826 0.441872 0.329365 0.465826 0.310301 0.437036 0.465826 0.441872 0.437036 0.415344 0.472213 0.284325 0.441872 0.266224 0.284325 2.0325e-16 0.266224 1.90935e-16 0.441872 0.266224 0.415344 0.250852 0.266224 1.90935e-16 0.250852 1.79367e-16 0.310301 0.437036 0.299543 0.409135 0.437036 0.415344 0.409135 0.383377 0.299543 0.409135 0.288785 0.335792 0.409135 0.383377 0.335792 0.382798 -0.419363 -0.347489 -0.390594 -0.325458 -0.347489 -0.163624 -0.325458 -0.155198 -0.390594 -0.325458 -0.367126 -0.305634 -0.325458 -0.155198 -0.305634 -0.140901 -0.163624 0.0625804 -0.155198 0.0688178 0.0625804 0.288785 0.0688178 0.27324 -0.155198 0.0688178 -0.140901 0.058397 0.0688178 0.27324 0.058397 0.257695 -0.367126 -0.305634 -0.348781 -0.28991 -0.305634 -0.140901 -0.28991 -0.134654 -0.348781 -0.28991 -0.335545 -0.278995 -0.28991 -0.134654 -0.278995 -0.128407 -0.547514 -0.603935 -0.529918 -0.60124 -0.603935 -0.660357 -0.60124 -0.622128 -0.529918 -0.60124 -0.512322 -0.565055 -0.60124 -0.622128 -0.565055 -0.617787 0.506738 0.705067 0.48695 0.677761 0.705067 0.842675 0.677761 0.810287 0.48695 0.677761 0.467162 0.651702 0.677761 0.810287 0.651702 0.779072 0.467162 0.651702 0.452689 0.625912 0.651702 0.779072 0.625912 0.748177 0.452689 0.625912 0.438216 0.582932 0.625912 0.748177 0.582932 0.727649 0.842675 0.907713 0.810287 0.872916 0.907713 0.894579 0.872916 0.860318 0.810287 0.872916 0.779072 0.839518 0.872916 0.860318 0.839518 0.827572 0.894579 0.804405 0.860318 0.773535 0.804405 0.644956 0.773535 0.620337 0.860318 0.773535 0.827572 0.74393 0.773535 0.620337 0.74393 0.595718 0.779072 0.839518 0.748177 0.808736 0.839518 0.827572 0.808736 0.796569 0.748177 0.808736 0.727649 0.779526 0.808736 0.796569 0.779526 0.76718 0.827572 0.74393 0.796569 0.715684 0.74393 0.595718 0.715684 0.573328 0.796569 0.715684 0.76718 0.688859 0.715684 0.573328 0.688859 0.550939 -0.660357 -0.604101 -0.622128 -0.601332 -0.604101 -0.547845 -0.601332 -0.530116 -0.622128 -0.601332 -0.617787 -0.565087 -0.601332 -0.530116 -0.565087 -0.512386 0.727649 0.779526 0.699874 0.751466 0.779526 0.76718 0.751466 0.739002 0.699874 0.751466 0.672099 0.723817 0.751466 0.739002 0.723817 0.711578 0.76718 0.688859 0.739002 0.663055 0.688859 0.550939 0.663055 0.530038 0.739002 0.663055 0.711578 0.638454 0.663055 0.530038 0.638454 0.509136 0.672099 0.723817 0.65179 0.697146 0.723817 0.711578 0.697146 0.682749 0.65179 0.697146 0.631482 0.652046 0.697146 0.682749 0.652046 0.67261 0.711578 0.638454 0.682749 0.614908 0.638454 0.509136 0.614908 0.493401 0.682749 0.614908 0.67261 0.575138 0.614908 0.493401 0.575138 0.477667 -0.349048 -0.578633 -0.337517 -0.558397 -0.578633 -0.758388 -0.558397 -0.731474 -0.337517 -0.558397 -0.325987 -0.538989 -0.558397 -0.731474 -0.538989 -0.705717 -0.758388 -0.87283 -0.731474 -0.841678 -0.87283 -0.912105 -0.841678 -0.879517 -0.731474 -0.841678 -0.705717 -0.811894 -0.841678 -0.879517 -0.811894 -0.848366 -0.325987 -0.538989 -0.315257 -0.520501 -0.538989 -0.705717 -0.520501 -0.681315 -0.315257 -0.520501 -0.304526 -0.503198 -0.520501 -0.681315 -0.503198 -0.658129 -0.705717 -0.811894 -0.681315 -0.783696 -0.811894 -0.848366 -0.783696 -0.818902 -0.681315 -0.783696 -0.658129 -0.757025 -0.783696 -0.818902 -0.757025 -0.791165 0.351783 0.470032 0.339279 0.466605 0.470032 0.588282 0.466605 0.552411 0.339279 0.466605 0.326775 0.43656 0.466605 0.552411 0.43656 0.546344 0.588282 0.605293 0.552411 0.599143 0.605293 0.622305 0.599143 0.583831 0.552411 0.599143 0.546344 0.561771 0.599143 0.583831 0.561771 0.577198 0.622305 0.53182 0.583831 0.527536 0.53182 0.441336 0.527536 0.424913 0.583831 0.527536 0.577198 0.492844 0.527536 0.424913 0.492844 0.40849 -0.304526 -0.503198 -0.298061 -0.486025 -0.503198 -0.658129 -0.486025 -0.635159 -0.298061 -0.486025 -0.291595 -0.455471 -0.486025 -0.635159 -0.455471 -0.619347 -0.658129 -0.757025 -0.635159 -0.732405 -0.757025 -0.791165 -0.732405 -0.764946 -0.635159 -0.732405 -0.619347 -0.709152 -0.732405 -0.764946 -0.709152 -0.739879 -0.619347 -0.709152 -0.602496 -0.68677 -0.709152 -0.739879 -0.68677 -0.713477 -0.602496 -0.68677 -0.585645 -0.64552 -0.68677 -0.713477 -0.64552 -0.705394 0.441429 0.531883 0.424964 0.52757 0.531883 0.622337 0.52757 0.583853 0.424964 0.52757 0.4085 0.492855 0.52757 0.583853 0.492855 0.57721 0.622337 0.605314 0.583853 0.599155 0.605314 0.588291 0.599155 0.552418 0.583853 0.599155 0.57721 0.561778 0.599155 0.552418 0.561778 0.546347 0.588291 0.470038 0.552418 0.466608 0.470038 0.351785 0.466608 0.33928 0.552418 0.466608 0.546347 0.436561 0.466608 0.33928 0.436561 0.326776 -0.912105 -0.87283 -0.879517 -0.841718 -0.87283 -0.758388 -0.841718 -0.731546 -0.879517 -0.841718 -0.848366 -0.811985 -0.841718 -0.731546 -0.811985 -0.705892 -0.758388 -0.578633 -0.731546 -0.558473 -0.578633 -0.349048 -0.558473 -0.337573 -0.731546 -0.558473 -0.705892 -0.539222 -0.558473 -0.337573 -0.539222 -0.326098 -0.848366 -0.811985 -0.818902 -0.783872 -0.811985 -0.705892 -0.783872 -0.681628 -0.818902 -0.783872 -0.791165 -0.757341 -0.783872 -0.681628 -0.757341 -0.658711 -0.705892 -0.539222 -0.681628 -0.520972 -0.539222 -0.326098 -0.520972 -0.315929 -0.681628 -0.520972 -0.658711 -0.503785 -0.520972 -0.315929 -0.503785 -0.305759 -0.791165 -0.757341 -0.764946 -0.732164 -0.757341 -0.658711 -0.732164 -0.636966 -0.764946 -0.732164 -0.739879 -0.707801 -0.732164 -0.636966 -0.707801 -0.616192 -0.658711 -0.503785 -0.636966 -0.487442 -0.503785 -0.305759 -0.487442 -0.296479 -0.636966 -0.487442 -0.616192 -0.472042 -0.487442 -0.296479 -0.472042 -0.287199 -0.739879 -0.707801 -0.713477 -0.685646 -0.707801 -0.616192 -0.685646 -0.594535 -0.713477 -0.685646 -0.705394 -0.646723 -0.685646 -0.594535 -0.646723 -0.588052 -0.616192 -0.472042 -0.594535 -0.457652 -0.472042 -0.287199 -0.457652 -0.281248 -0.594535 -0.457652 -0.588052 -0.431675 -0.457652 -0.281248 -0.431675 -0.275297 0.644956 0.804405 0.62037 0.773556 0.804405 0.894579 0.773556 0.860331 0.62037 0.773556 0.595784 0.743974 0.773556 0.860331 0.743974 0.827598 0.894579 0.907713 0.860331 0.872923 0.907713 0.842675 0.872923 0.810291 0.860331 0.872923 0.827598 0.839534 0.872923 0.810291 0.839534 0.779081 0.595784 0.743974 0.573432 0.715748 0.743974 0.827598 0.715748 0.796608 0.573432 0.715748 0.55108 0.688946 0.715748 0.796608 0.688946 0.767231 0.827598 0.839534 0.796608 0.808759 0.839534 0.779081 0.808759 0.74819 0.796608 0.808759 0.767231 0.779555 0.808759 0.74819 0.779555 0.727665 0.842675 0.705067 0.810291 0.677764 0.705067 0.506738 0.677764 0.486951 0.810291 0.677764 0.779081 0.651707 0.677764 0.486951 0.651707 0.467164 0.779081 0.651707 0.74819 0.625919 0.651707 0.467164 0.625919 0.452692 0.74819 0.625919 0.727665 0.582942 0.625919 0.452692 0.582942 0.43822 0.55108 0.688946 0.530219 0.663163 0.688946 0.767231 0.663163 0.739063 0.530219 0.663163 0.509359 0.638572 0.663163 0.739063 0.638572 0.711644 0.767231 0.779555 0.739063 0.7515 0.779555 0.727665 0.7515 0.699891 0.739063 0.7515 0.711644 0.723853 0.7515 0.699891 0.723853 0.672118 0.509359 0.638572 0.493596 0.615024 0.638572 0.711644 0.615024 0.682814 0.493596 0.615024 0.477833 0.575248 0.615024 0.682814 0.575248 0.672663 0.711644 0.723853 0.682814 0.697181 0.723853 0.672118 0.697181 0.651808 0.682814 0.697181 0.672663 0.65208 0.697181 0.651808 0.65208 0.631497 0.25082 0.333055 0.242591 0.334183 0.333055 0.415291 0.334183 0.399278 0.242591 0.334183 0.234361 0.326663 0.334183 0.399278 0.326663 0.383266 0.234361 0.326663 0.23086 0.319604 0.326663 0.383266 0.319604 0.382848 0.23086 0.319604 0.227359 0.304895 0.319604 0.382848 0.304895 0.382431 0.415344 0.333098 0.39936 0.334251 0.333098 0.250852 0.334251 0.242644 0.39936 0.334251 0.383377 0.326772 0.334251 0.242644 0.326772 0.234436 0.383377 0.326772 0.383087 0.31977 0.326772 0.234436 0.31977 0.230955 0.383087 0.31977 0.382798 0.305136 0.31977 0.230955 0.305136 0.227474 0.353857 0.219671 0.341595 0.219465 0.219671 0.0854844 0.219465 0.08202 0.341595 0.219465 0.329333 0.203944 0.219465 0.08202 0.203944 0.0785555 -0.451207 -0.497149 -0.437491 -0.49593 -0.497149 -0.543091 -0.49593 -0.513012 -0.437491 -0.49593 -0.423775 -0.467085 -0.49593 -0.513012 -0.467085 -0.510396 -0.371817 -0.410161 -0.359721 -0.408326 -0.410161 -0.448504 -0.408326 -0.422496 -0.359721 -0.408326 -0.347625 -0.383494 -0.408326 -0.422496 -0.383494 -0.419363 -0.543091 -0.497149 -0.513012 -0.495928 -0.497149 -0.451207 -0.495928 -0.437485 -0.513012 -0.495928 -0.510396 -0.467079 -0.495928 -0.437485 -0.467079 -0.423762 0.0854874 0.219675 0.0820365 0.219481 0.219675 0.353862 0.219481 0.341613 0.0820365 0.219481 0.0785857 0.203975 0.219481 0.341613 0.203975 0.329365 -0.448504 -0.410112 -0.422496 -0.408265 -0.410112 -0.371719 -0.408265 -0.359604 -0.422496 -0.408265 -0.419363 -0.383426 -0.408265 -0.359604 -0.383426 -0.347489 
