# vtk DataFile Version 3.0
#This file was generated by the deal.II library on 2018/12/4 at 0:47:15
ASCII
DATASET UNSTRUCTURED_GRID

POINTS 14320 double
0 0.125 0
0.03125 0.125 0
0 0.15625 0
0.03125 0.15625 0
0 0.15625 0
0.03125 0.15625 0
0 0.1875 0
0.03125 0.1875 0
0.03125 0.15625 0
0.0625 0.15625 0
0.03125 0.1875 0
0.0625 0.1875 0
0.3125 0 0
0.34375 0 0
0.3125 0.03125 0
0.34375 0.03125 0
0.3125 0.03125 0
0.34375 0.03125 0
0.3125 0.0625 0
0.34375 0.0625 0
0.34375 0.03125 0
0.375 0.03125 0
0.34375 0.0625 0
0.375 0.0625 0
0.375 0.25 0
0.40625 0.25 0
0.375 0.28125 0
0.40625 0.28125 0
0.375 0.28125 0
0.40625 0.28125 0
0.375 0.3125 0
0.40625 0.3125 0
0 0 0
0.03125 0 0
0 0.03125 0
0.03125 0.03125 0
0.03125 0 0
0.0625 0 0
0.03125 0.03125 0
0.0625 0.03125 0
0 0.03125 0
0.03125 0.03125 0
0 0.0625 0
0.03125 0.0625 0
0.03125 0.03125 0
0.0625 0.03125 0
0.03125 0.0625 0
0.0625 0.0625 0
0 0.09375 0
0.03125 0.09375 0
0 0.125 0
0.03125 0.125 0
0.96875 0.125 0
1 0.125 0
0.96875 0.15625 0
1 0.15625 0
0.9375 0.15625 0
0.96875 0.15625 0
0.9375 0.1875 0
0.96875 0.1875 0
0.96875 0.15625 0
1 0.15625 0
0.96875 0.1875 0
1 0.1875 0
0.3125 0.0625 0
0.34375 0.0625 0
0.3125 0.09375 0
0.34375 0.09375 0
0.34375 0.0625 0
0.375 0.0625 0
0.34375 0.09375 0
0.375 0.09375 0
0.3125 0.09375 0
0.34375 0.09375 0
0.3125 0.125 0
0.34375 0.125 0
0.34375 0.09375 0
0.375 0.09375 0
0.34375 0.125 0
0.375 0.125 0
0.59375 0.25 0
0.625 0.25 0
0.59375 0.28125 0
0.625 0.28125 0
0.0625 0.28125 0
0.09375 0.28125 0
0.0625 0.3125 0
0.09375 0.3125 0
0.375 0.1875 0
0.40625 0.1875 0
0.375 0.21875 0
0.40625 0.21875 0
0.375 0.21875 0
0.40625 0.21875 0
0.375 0.25 0
0.40625 0.25 0
0.90625 0.28125 0
0.9375 0.28125 0
0.90625 0.3125 0
0.9375 0.3125 0
0.65625 0 0
0.6875 0 0
0.65625 0.03125 0
0.6875 0.03125 0
0.625 0.03125 0
0.65625 0.03125 0
0.625 0.0625 0
0.65625 0.0625 0
0.65625 0.03125 0
0.6875 0.03125 0
0.65625 0.0625 0
0.6875 0.0625 0
0.25 0.28125 0
0.28125 0.28125 0
0.25 0.3125 0
0.28125 0.3125 0
0.9375 0 0
0.96875 0 0
0.9375 0.03125 0
0.96875 0.03125 0
0.96875 0 0
1 0 0
0.96875 0.03125 0
1 0.03125 0
0.9375 0.03125 0
0.96875 0.03125 0
0.9375 0.0625 0
0.96875 0.0625 0
0.96875 0.03125 0
1 0.03125 0
0.96875 0.0625 0
1 0.0625 0
0.96875 0.09375 0
1 0.09375 0
0.96875 0.125 0
1 0.125 0
0.71875 0.28125 0
0.75 0.28125 0
0.71875 0.3125 0
0.75 0.3125 0
0.25 0.375 0
0.28125 0.375 0
0.25 0.40625 0
0.28125 0.40625 0
0.25 0.40625 0
0.28125 0.40625 0
0.25 0.4375 0
0.28125 0.4375 0
0.625 0.0625 0
0.65625 0.0625 0
0.625 0.09375 0
0.65625 0.09375 0
0.65625 0.0625 0
0.6875 0.0625 0
0.65625 0.09375 0
0.6875 0.09375 0
0.625 0.09375 0
0.65625 0.09375 0
0.625 0.125 0
0.65625 0.125 0
0.65625 0.09375 0
0.6875 0.09375 0
0.65625 0.125 0
0.6875 0.125 0
0.40625 0.5625 0
0.4375 0.5625 0
0.40625 0.59375 0
0.4375 0.59375 0
0.40625 0.59375 0
0.4375 0.59375 0
0.40625 0.625 0
0.4375 0.625 0
0.4375 0.5625 0
0.46875 0.5625 0
0.4375 0.59375 0
0.46875 0.59375 0
0.4375 0.59375 0
0.46875 0.59375 0
0.4375 0.625 0
0.46875 0.625 0
0.46875 0.59375 0
0.5 0.59375 0
0.46875 0.625 0
0.5 0.625 0
0.375 0.40625 0
0.40625 0.40625 0
0.375 0.4375 0
0.40625 0.4375 0
0.40625 0.40625 0
0.4375 0.40625 0
0.40625 0.4375 0
0.4375 0.4375 0
0.375 0.4375 0
0.40625 0.4375 0
0.375 0.46875 0
0.40625 0.46875 0
0.40625 0.4375 0
0.4375 0.4375 0
0.40625 0.46875 0
0.4375 0.46875 0
0.375 0.46875 0
0.40625 0.46875 0
0.375 0.5 0
0.40625 0.5 0
0.40625 0.46875 0
0.4375 0.46875 0
0.40625 0.5 0
0.4375 0.5 0
0.4375 0.625 0
0.46875 0.625 0
0.4375 0.65625 0
0.46875 0.65625 0
0.46875 0.625 0
0.5 0.625 0
0.46875 0.65625 0
0.5 0.65625 0
0.4375 0.65625 0
0.46875 0.65625 0
0.4375 0.6875 0
0.46875 0.6875 0
0.375 0 0
0.40625 0 0
0.375 0.03125 0
0.40625 0.03125 0
0.375 0.03125 0
0.40625 0.03125 0
0.375 0.0625 0
0.40625 0.0625 0
0.375 0.0625 0
0.40625 0.0625 0
0.375 0.09375 0
0.40625 0.09375 0
0.375 0.09375 0
0.40625 0.09375 0
0.375 0.125 0
0.40625 0.125 0
0.5625 0.40625 0
0.59375 0.40625 0
0.5625 0.4375 0
0.59375 0.4375 0
0.59375 0.40625 0
0.625 0.40625 0
0.59375 0.4375 0
0.625 0.4375 0
0.5625 0.4375 0
0.59375 0.4375 0
0.5625 0.46875 0
0.59375 0.46875 0
0.59375 0.4375 0
0.625 0.4375 0
0.59375 0.46875 0
0.625 0.46875 0
0.5625 0.46875 0
0.59375 0.46875 0
0.5625 0.5 0
0.59375 0.5 0
0.59375 0.46875 0
0.625 0.46875 0
0.59375 0.5 0
0.625 0.5 0
0.71875 0.375 0
0.75 0.375 0
0.71875 0.40625 0
0.75 0.40625 0
0.71875 0.40625 0
0.75 0.40625 0
0.71875 0.4375 0
0.75 0.4375 0
0 0.3125 0
0.03125 0.3125 0
0 0.34375 0
0.03125 0.34375 0
0 0.34375 0
0.03125 0.34375 0
0 0.375 0
0.03125 0.375 0
0.0625 0.375 0
0.09375 0.375 0
0.0625 0.40625 0
0.09375 0.40625 0
0.0625 0.40625 0
0.09375 0.40625 0
0.0625 0.4375 0
0.09375 0.4375 0
0.0625 0.4375 0
0.09375 0.4375 0
0.0625 0.46875 0
0.09375 0.46875 0
0.0625 0.46875 0
0.09375 0.46875 0
0.0625 0.5 0
0.09375 0.5 0
0.09375 0.46875 0
0.125 0.46875 0
0.09375 0.5 0
0.125 0.5 0
0.53125 0.5625 0
0.5625 0.5625 0
0.53125 0.59375 0
0.5625 0.59375 0
0.5 0.59375 0
0.53125 0.59375 0
0.5 0.625 0
0.53125 0.625 0
0.53125 0.59375 0
0.5625 0.59375 0
0.53125 0.625 0
0.5625 0.625 0
0.5625 0.5625 0
0.59375 0.5625 0
0.5625 0.59375 0
0.59375 0.59375 0
0.5625 0.59375 0
0.59375 0.59375 0
0.5625 0.625 0
0.59375 0.625 0
0.0625 0.3125 0
0.09375 0.3125 0
0.0625 0.34375 0
0.09375 0.34375 0
0.0625 0.34375 0
0.09375 0.34375 0
0.0625 0.375 0
0.09375 0.375 0
0.09375 0.34375 0
0.125 0.34375 0
0.09375 0.375 0
0.125 0.375 0
0.5 0.625 0
0.53125 0.625 0
0.5 0.65625 0
0.53125 0.65625 0
0.53125 0.625 0
0.5625 0.625 0
0.53125 0.65625 0
0.5625 0.65625 0
0.53125 0.65625 0
0.5625 0.65625 0
0.53125 0.6875 0
0.5625 0.6875 0
0.21875 0.3125 0
0.25 0.3125 0
0.21875 0.34375 0
0.25 0.34375 0
0.21875 0.40625 0
0.25 0.40625 0
0.21875 0.4375 0
0.25 0.4375 0
0.21875 0.4375 0
0.25 0.4375 0
0.21875 0.46875 0
0.25 0.46875 0
0.21875 0.46875 0
0.25 0.46875 0
0.21875 0.5 0
0.25 0.5 0
0.75 0.40625 0
0.78125 0.40625 0
0.75 0.4375 0
0.78125 0.4375 0
0.75 0.4375 0
0.78125 0.4375 0
0.75 0.46875 0
0.78125 0.46875 0
0.75 0.46875 0
0.78125 0.46875 0
0.75 0.5 0
0.78125 0.5 0
0.3125 0.125 0
0.34375 0.125 0
0.3125 0.15625 0
0.34375 0.15625 0
0.34375 0.125 0
0.375 0.125 0
0.34375 0.15625 0
0.375 0.15625 0
0.3125 0.15625 0
0.34375 0.15625 0
0.3125 0.1875 0
0.34375 0.1875 0
0.34375 0.15625 0
0.375 0.15625 0
0.34375 0.1875 0
0.375 0.1875 0
0.375 0.125 0
0.40625 0.125 0
0.375 0.15625 0
0.40625 0.15625 0
0.375 0.15625 0
0.40625 0.15625 0
0.375 0.1875 0
0.40625 0.1875 0
0.90625 0.375 0
0.9375 0.375 0
0.90625 0.40625 0
0.9375 0.40625 0
0.90625 0.40625 0
0.9375 0.40625 0
0.90625 0.4375 0
0.9375 0.4375 0
0.90625 0.4375 0
0.9375 0.4375 0
0.90625 0.46875 0
0.9375 0.46875 0
0.90625 0.46875 0
0.9375 0.46875 0
0.90625 0.5 0
0.9375 0.5 0
0.75 0.3125 0
0.78125 0.3125 0
0.75 0.34375 0
0.78125 0.34375 0
0.125 0.53125 0
0.15625 0.53125 0
0.125 0.5625 0
0.15625 0.5625 0
0.15625 0.53125 0
0.1875 0.53125 0
0.15625 0.5625 0
0.1875 0.5625 0
0.21875 0.5 0
0.25 0.5 0
0.21875 0.53125 0
0.25 0.53125 0
0.1875 0.53125 0
0.21875 0.53125 0
0.1875 0.5625 0
0.21875 0.5625 0
0.21875 0.53125 0
0.25 0.53125 0
0.21875 0.5625 0
0.25 0.5625 0
0.125 0.5625 0
0.15625 0.5625 0
0.125 0.59375 0
0.15625 0.59375 0
0.15625 0.5625 0
0.1875 0.5625 0
0.15625 0.59375 0
0.1875 0.59375 0
0.125 0.59375 0
0.15625 0.59375 0
0.125 0.625 0
0.15625 0.625 0
0.15625 0.59375 0
0.1875 0.59375 0
0.15625 0.625 0
0.1875 0.625 0
0.15625 0.625 0
0.1875 0.625 0
0.15625 0.65625 0
0.1875 0.65625 0
0.15625 0.65625 0
0.1875 0.65625 0
0.15625 0.6875 0
0.1875 0.6875 0
0.90625 0.3125 0
0.9375 0.3125 0
0.90625 0.34375 0
0.9375 0.34375 0
0.875 0.34375 0
0.90625 0.34375 0
0.875 0.375 0
0.90625 0.375 0
0.90625 0.34375 0
0.9375 0.34375 0
0.90625 0.375 0
0.9375 0.375 0
0.15625 0.6875 0
0.1875 0.6875 0
0.15625 0.71875 0
0.1875 0.71875 0
0.15625 0.71875 0
0.1875 0.71875 0
0.15625 0.75 0
0.1875 0.75 0
0.96875 0.3125 0
1 0.3125 0
0.96875 0.34375 0
1 0.34375 0
0.96875 0.34375 0
1 0.34375 0
0.96875 0.375 0
1 0.375 0
0.59375 0 0
0.625 0 0
0.59375 0.03125 0
0.625 0.03125 0
0.59375 0.03125 0
0.625 0.03125 0
0.59375 0.0625 0
0.625 0.0625 0
0.59375 0.0625 0
0.625 0.0625 0
0.59375 0.09375 0
0.625 0.09375 0
0.59375 0.09375 0
0.625 0.09375 0
0.59375 0.125 0
0.625 0.125 0
0.59375 0.125 0
0.625 0.125 0
0.59375 0.15625 0
0.625 0.15625 0
0.5625 0.15625 0
0.59375 0.15625 0
0.5625 0.1875 0
0.59375 0.1875 0
0.59375 0.15625 0
0.625 0.15625 0
0.59375 0.1875 0
0.625 0.1875 0
0.5625 0.1875 0
0.59375 0.1875 0
0.5625 0.21875 0
0.59375 0.21875 0
0.59375 0.1875 0
0.625 0.1875 0
0.59375 0.21875 0
0.625 0.21875 0
0.59375 0.21875 0
0.625 0.21875 0
0.59375 0.25 0
0.625 0.25 0
0.625 0.125 0
0.65625 0.125 0
0.625 0.15625 0
0.65625 0.15625 0
0.65625 0.125 0
0.6875 0.125 0
0.65625 0.15625 0
0.6875 0.15625 0
0.625 0.15625 0
0.65625 0.15625 0
0.625 0.1875 0
0.65625 0.1875 0
0.65625 0.15625 0
0.6875 0.15625 0
0.65625 0.1875 0
0.6875 0.1875 0
0.625 0.1875 0
0.65625 0.1875 0
0.625 0.21875 0
0.65625 0.21875 0
0.65625 0.1875 0
0.6875 0.1875 0
0.65625 0.21875 0
0.6875 0.21875 0
0.625 0.21875 0
0.65625 0.21875 0
0.625 0.25 0
0.65625 0.25 0
0.65625 0.21875 0
0.6875 0.21875 0
0.65625 0.25 0
0.6875 0.25 0
0.75 0.5 0
0.78125 0.5 0
0.75 0.53125 0
0.78125 0.53125 0
0.78125 0.5 0
0.8125 0.5 0
0.78125 0.53125 0
0.8125 0.53125 0
0.75 0.53125 0
0.78125 0.53125 0
0.75 0.5625 0
0.78125 0.5625 0
0.78125 0.53125 0
0.8125 0.53125 0
0.78125 0.5625 0
0.8125 0.5625 0
0.8125 0.53125 0
0.84375 0.53125 0
0.8125 0.5625 0
0.84375 0.5625 0
0.84375 0.53125 0
0.875 0.53125 0
0.84375 0.5625 0
0.875 0.5625 0
0.625 0.25 0
0.65625 0.25 0
0.625 0.28125 0
0.65625 0.28125 0
0.65625 0.25 0
0.6875 0.25 0
0.65625 0.28125 0
0.6875 0.28125 0
0.65625 0.28125 0
0.6875 0.28125 0
0.65625 0.3125 0
0.6875 0.3125 0
0.8125 0.5625 0
0.84375 0.5625 0
0.8125 0.59375 0
0.84375 0.59375 0
0.84375 0.5625 0
0.875 0.5625 0
0.84375 0.59375 0
0.875 0.59375 0
0.8125 0.59375 0
0.84375 0.59375 0
0.8125 0.625 0
0.84375 0.625 0
0 0.625 0
0.03125 0.625 0
0 0.65625 0
0.03125 0.65625 0
0 0.65625 0
0.03125 0.65625 0
0 0.6875 0
0.03125 0.6875 0
0.875 0.5625 0
0.90625 0.5625 0
0.875 0.59375 0
[...]
POINT_DATA 14320
SCALARS U double 1
LOOKUP_TABLE default
0 0.215688 0 0.209568 0 0.209568 0 0.202897 0.209568 0.400764 0.202897 0.388046 0.165581 -0.0831913 0.159275 -0.0816045 0.159275 -0.0816045 0.153372 -0.0796992 -0.0816045 -0.315522 -0.0796992 -0.306187 -0.257507 -0.422817 -0.2504 -0.410598 -0.2504 -0.410598 -0.243745 -0.398837 0 0.246377 0 0.23846 0.246377 0.471536 0.23846 0.456025 0 0.23846 0 0.2311 0.23846 0.456025 0.2311 0.441575 0 0.223004 0 0.215688 0.215694 2.75183e-16 0.209575 2.66716e-16 0.400776 0.209575 0.38806 0.202905 0.209575 2.66716e-16 0.202905 2.5851e-16 0.153372 -0.0796992 0.147764 -0.0779331 -0.0796992 -0.306187 -0.0779331 -0.29726 0.147764 -0.0779331 0.14236 -0.0762514 -0.0779331 -0.29726 -0.0762514 -0.288681 -0.422596 -0.257626 -0.410863 -0.250738 0.352538 0.490089 0.341028 0.473786 -0.272528 -0.44865 -0.264887 -0.435447 -0.264887 -0.435447 -0.257507 -0.422817 0.49012 0.35256 0.473823 0.341055 -0.0831913 0.165581 -0.0815995 0.15928 -0.315517 -0.0815995 -0.306172 -0.0796871 -0.0815995 0.15928 -0.0796871 0.153382 0.444936 0.294927 0.431302 0.28507 0.471536 0.246377 0.456028 0.238462 0.246377 3.11823e-16 0.238462 3.02229e-16 0.456028 0.238462 0.44158 0.231103 0.238462 3.02229e-16 0.231103 2.9293e-16 0.223008 2.83918e-16 0.215694 2.75183e-16 0.294968 0.444975 0.285112 0.431339 0.402518 0.266086 0.390289 0.256972 0.390289 0.256972 0.377583 0.248848 -0.306172 -0.0796871 -0.297207 -0.0779245 -0.0796871 0.153382 -0.0779245 0.147777 -0.297207 -0.0779245 -0.288714 -0.0762516 -0.0779245 0.147777 -0.0762516 0.142375 -0.314134 -0.408911 -0.304186 -0.396239 -0.304186 -0.396239 -0.295095 -0.384032 -0.408911 -0.469019 -0.396239 -0.454637 -0.396239 -0.454637 -0.384032 -0.440669 -0.454637 -0.475497 -0.440669 -0.460115 -0.223769 -0.365849 -0.217381 -0.354501 -0.365849 -0.476016 -0.354501 -0.461516 -0.217381 -0.354501 -0.211121 -0.344034 -0.354501 -0.461516 -0.344034 -0.447466 -0.211121 -0.344034 -0.205011 -0.334369 -0.344034 -0.447466 -0.334369 -0.43513 -0.384032 -0.440669 -0.371335 -0.426694 -0.440669 -0.460115 -0.426694 -0.446342 -0.371335 -0.426694 -0.359845 -0.413243 -0.3248 -0.538436 -0.315522 -0.522143 -0.315522 -0.522143 -0.306187 -0.506375 -0.306187 -0.506375 -0.29726 -0.49114 -0.29726 -0.49114 -0.288681 -0.476467 -0.476019 -0.365854 -0.461517 -0.354501 -0.365854 -0.223771 -0.354501 -0.217378 -0.461517 -0.354501 -0.447467 -0.344033 -0.354501 -0.217378 -0.344033 -0.211119 -0.447467 -0.344033 -0.435132 -0.334371 -0.344033 -0.211119 -0.334371 -0.205012 0.266111 0.402546 0.256989 0.390305 0.256989 0.390305 0.248872 0.377568 0 0.178149 0 0.172498 0 0.172498 0 0.167035 0.319794 0.445338 0.309589 0.430136 0.309589 0.430136 0.299668 0.416619 0.299668 0.416619 0.29095 0.404604 0.29095 0.404604 0.282091 0.392261 0.404604 0.482881 0.392261 0.467437 -0.469023 -0.408919 -0.454643 -0.39625 -0.475497 -0.454643 -0.460115 -0.440677 -0.454643 -0.39625 -0.440677 -0.384046 -0.408919 -0.314144 -0.39625 -0.304201 -0.39625 -0.304201 -0.384046 -0.295115 0.341028 0.473786 0.330219 0.459829 0.330219 0.459829 0.319794 0.445338 0.459829 0.549244 0.445338 0.531834 -0.460115 -0.440677 -0.446342 -0.426704 -0.440677 -0.384046 -0.426704 -0.371354 -0.426704 -0.371354 -0.413255 -0.359869 0.539471 0.431302 0.521877 0.416391 0.488941 0.390289 0.472757 0.377583 0.472757 0.377583 0.457673 0.364466 0.457673 0.364466 0.44289 0.353758 0.390305 0.488954 0.377568 0.472729 0.377568 0.472729 0.364565 0.457341 0.364565 0.457341 0.353827 0.443891 0.14236 -0.0762514 0.13714 -0.0746572 -0.0762514 -0.288681 -0.0746572 -0.280438 0.13714 -0.0746572 0.132087 -0.0731428 -0.0746572 -0.280438 -0.0731428 -0.272528 -0.288681 -0.476467 -0.280438 -0.462345 -0.280438 -0.462345 -0.272528 -0.44865 0.445409 0.319844 0.430247 0.30968 0.430247 0.30968 0.417048 0.299677 0.417048 0.299677 0.404045 0.29089 0.404045 0.29089 0.391593 0.28208 0.431339 0.539511 0.416425 0.521915 0.452782 0.488106 0.438346 0.472105 0.488106 0.480425 0.472105 0.464789 0.44289 0.353758 0.430133 0.342648 0.480425 0.430133 0.464789 0.417118 0.430133 0.342648 0.417118 0.332194 0.438346 0.472105 0.424456 0.457275 0.472105 0.464789 0.457275 0.449103 0.424456 0.457275 0.412408 0.443278 0.457275 0.449103 0.443278 0.435311 0.443278 0.435311 0.428707 0.421865 0.428707 0.421865 0.415786 0.408867 0.473823 0.341055 0.459877 0.330255 0.549297 0.459877 0.531907 0.445409 0.459877 0.330255 0.445409 0.319844 0.415786 0.408867 0.403083 0.396427 0.403083 0.396427 0.391856 0.385465 0.178164 2.28134e-16 0.172517 2.21115e-16 0.172517 2.21115e-16 0.16706 2.14312e-16 -0.538436 -0.3248 -0.522138 -0.315517 -0.522138 -0.315517 -0.506353 -0.306172 -0.506353 -0.306172 -0.491079 -0.297207 -0.491079 -0.297207 -0.476031 -0.288714 -0.476031 -0.288714 -0.462993 -0.280528 -0.60572 -0.462993 -0.587029 -0.449185 -0.462993 -0.280528 -0.449185 -0.272706 -0.587029 -0.449185 -0.57011 -0.436193 -0.449185 -0.272706 -0.436193 -0.264971 -0.436193 -0.264971 -0.422596 -0.257626 -0.288714 -0.0762516 -0.280528 -0.0746735 -0.0762516 0.142375 -0.0746735 0.13716 -0.280528 -0.0746735 -0.272706 -0.073153 -0.0746735 0.13716 -0.073153 0.132111 -0.272706 -0.073153 -0.264971 -0.0716994 -0.073153 0.132111 -0.0716994 0.127217 -0.264971 -0.0716994 -0.257626 -0.0703017 -0.0716994 0.127217 -0.0703017 0.122524 0.353827 0.443891 0.342745 0.429939 0.443891 0.494644 0.429939 0.479852 0.342745 0.429939 0.332175 0.417041 0.429939 0.479852 0.417041 0.464823 0.479852 0.488456 0.464823 0.472376 0.488456 0.45285 0.472376 0.439365 -0.257626 -0.0703017 -0.250738 -0.0688646 -0.0703017 0.122524 -0.0688646 0.118135 -0.0688646 0.118135 -0.0671144 0.113751 0.464823 0.472376 0.449082 0.457741 0.472376 0.439365 0.457741 0.425676 0.449082 0.457741 0.435281 0.442357 0 0.129589 0 0.12497 0 0.12497 0 0.121244 0.439365 0.368368 0.425676 0.356233 0.368368 0.264755 0.356233 0.256194 0.425676 0.356233 0.411303 0.344935 0.356233 0.256194 0.344935 0.248014 0.248145 0.34556 0.239829 0.334285 0.34556 0.412408 0.334285 0.398626 0.239829 0.334285 0.233023 0.324035 0.334285 0.398626 0.324035 0.386549 0.435281 0.442357 0.421775 0.428958 0.421775 0.428958 0.408895 0.415836 0 0.202897 0 0.195782 0 0.195782 0 0.189791 0.408895 0.415836 0.396432 0.403125 0.396432 0.403125 0.385449 0.391874 0.324035 0.386549 0.31371 0.374644 0.31371 0.374644 0.304725 0.364325 0.411303 0.344935 0.398849 0.334183 0.344935 0.248014 0.334183 0.240214 0.398849 0.334183 0.386626 0.324148 0.334183 0.240214 0.324148 0.232965 0.248014 0.129598 0.240214 0.125397 0.129598 1.66907e-16 0.125397 1.61772e-16 0.125397 1.61772e-16 0.121166 1.56794e-16 0.386626 0.324148 0.374711 0.313768 0.374711 0.313768 0.364364 0.304772 0.202905 2.5851e-16 0.195791 2.50557e-16 0.195791 2.50557e-16 0.189801 2.42848e-16 0.353758 0.233134 0.342648 0.225321 0.233134 0.0910641 0.225321 0.0880013 0.342648 0.225321 0.332194 0.21829 0.225321 0.0880013 0.21829 0.0849695 -0.43513 -0.499812 -0.420824 -0.4841 -0.499812 -0.521824 -0.4841 -0.505539 -0.420824 -0.4841 -0.408911 -0.469019 -0.4841 -0.505539 -0.469019 -0.490612 -0.359845 -0.413243 -0.348496 -0.400447 -0.413243 -0.432358 -0.400447 -0.418234 -0.348496 -0.400447 -0.337596 -0.388107 -0.400447 -0.418234 -0.388107 -0.405311 0 0.156501 0 0.152146 0 0.152146 0 0.14724 0.152146 0.29095 0.14724 0.282091 -0.521824 -0.499813 -0.505539 -0.484103 -0.499813 -0.435132 -0.484103 -0.420829 -0.505539 -0.484103 -0.490612 -0.469023 -0.484103 -0.420829 -0.469023 -0.408919 0.0910774 0.233171 0.0880074 0.225342 0.233171 0.353827 0.225342 0.342745 0.0880074 0.225342 0.0849645 0.218295 0.225342 0.342745 0.218295 0.332175 -0.432358 -0.413255 -0.418234 -0.400462 -0.413255 -0.359869 -0.400462 -0.348526 -0.418234 -0.400462 -0.405311 -0.388126 -0.400462 -0.348526 -0.388126 -0.337633 0.156513 2.01328e-16 0.152152 1.95134e-16 0.29089 0.152152 0.28208 0.147258 0.152152 1.95134e-16 0.147258 1.8913e-16 0 0.138012 0 0.133683 0.138012 0.263915 0.133683 0.255343 0 0.133683 0 0.129589 0.133683 0.255343 0.129589 0.248145 0.264755 0.138182 0.256194 0.133875 0.138182 1.77671e-16 0.133875 1.72205e-16 0.256194 0.133875 0.248014 0.129598 0.133875 1.72205e-16 0.129598 1.66907e-16 -0.277057 -0.212266 -0.268031 -0.204925 -0.212266 -0.128635 -0.204925 -0.124002 -0.268031 -0.204925 -0.259614 -0.19808 -0.204925 -0.124002 -0.19808 -0.119487 0.064656 0.161766 0.0634179 0.157307 0.0634179 0.157307 0.0623506 0.153437 0 0.189791 0 0.183911 0 0.183911 0 0.178149 0.310962 0.204721 0.301212 0.198154 0.204721 0.0796088 0.198154 0.0772499 0.301212 0.198154 0.292018 0.192136 0.198154 0.0772499 0.192136 0.0750091 0.292018 0.192136 0.283154 0.186568 0.192136 0.0750091 0.186568 0.0729857 0.283154 0.186568 0.275686 0.181377 0.186568 0.0729857 0.181377 0.0710863 0.364325 0.391856 0.352433 0.379935 0.391856 0.385465 0.379935 0.373942 0.352433 0.379935 0.342119 0.368559 0.379935 0.373942 0.368559 0.362829 0.385465 0.346126 0.373942 0.335278 0.346126 0.275686 0.335278 0.267083 0.373942 0.335278 0.362829 0.325369 0.335278 0.267083 0.325369 0.259477 0.342119 0.368559 0.331958 0.357891 0.368559 0.362829 0.357891 0.352308 0.331958 0.357891 0.323087 0.34767 0.357891 0.352308 0.34767 0.342292 0.362829 0.325369 0.352308 0.316042 0.325369 0.259477 0.316042 0.252187 0.352308 0.316042 0.342292 0.307143 0.316042 0.252187 0.307143 0.245248 0.132087 -0.0731428 0.127195 -0.0716869 -0.0731428 -0.272528 -0.0716869 -0.264887 0.127195 -0.0716869 0.122498 -0.0702676 -0.0716869 -0.264887 -0.0702676 -0.257507 0.270365 0.323087 0.262346 0.313781 0.262346 0.313781 0.254982 0.305008 0.189801 2.42848e-16 0.183922 2.35376e-16 0.183922 2.35376e-16 0.178164 2.28134e-16 0.254982 0.305008 0.248359 0.296785 0.323087 0.34767 0.313781 0.337894 0.34767 0.342292 0.337894 0.332709 0.313781 0.337894 0.305008 0.328487 0.337894 0.332709 0.328487 0.323534 0.342292 0.307143 0.332709 0.298695 0.307143 0.245248 0.298695 0.238534 0.332709 0.298695 0.323534 0.290603 0.298695 0.238534 0.290603 0.232697 0.305008 0.328487 0.296785 0.319457 0.328487 0.323534 0.319457 0.314719 0.296785 0.319457 0.288467 0.310731 0.319457 0.314719 0.310731 0.306235 0.323534 0.290603 0.314719 0.282859 0.290603 0.232697 0.282859 0.226587 0.314719 0.282859 0.306235 0.275366 0.282859 0.226587 0.275366 0.220783 0.0795845 0.204699 0.0772167 0.198124 0.204699 0.310942 0.198124 0.301186 0.0772167 0.198124 0.0749644 0.192096 0.198124 0.301186 0.192096 0.291985 0.0749644 0.192096 0.0729242 0.186511 0.192096 0.291985 0.186511 0.283109 0.0729242 0.186511 0.0709999 0.181293 0.186511 0.283109 0.181293 0.275615 0.275615 0.346079 0.266972 0.335195 0.346079 0.385449 0.335195 0.373896 0.266972 0.335195 0.259306 0.325238 0.335195 0.373896 0.325238 0.362749 0.385449 0.391874 0.373896 0.379926 0.391874 0.364364 0.379926 0.35245 0.373896 0.379926 0.362749 0.368526 0.379926 0.35245 0.368526 0.342118 0.259306 0.325238 0.251941 0.315859 0.325238 0.362749 0.315859 0.352202 0.251941 0.315859 0.244919 0.306966 0.315859 0.352202 0.306966 0.342189 0.362749 0.368526 0.352202 0.357842 0.368526 0.342118 0.357842 0.331944 0.352202 0.357842 0.342189 0.347615 0.357842 0.331944 0.347615 0.32307 0.244919 0.306966 0.238464 0.29861 0.306966 0.342189 0.29861 0.332586 0.29861 0.332586 0.29001 0.323419 0.342189 0.347615 0.332586 0.337847 0.347615 0.32307 0.337847 0.313767 0.332586 0.337847 0.323419 0.328451 0.337847 0.313767 0.328451 0.305 0.29001 0.323419 0.282556 0.314623 0.282556 0.314623 0.275366 0.306235 0.323419 0.328451 0.314623 0.319437 0.328451 0.305 0.319437 0.296782 0.314623 0.319437 0.306235 0.310731 0.319437 0.296782 0.310731 0.288467 0.32307 0.270366 0.313767 0.262346 0.313767 0.262346 0.305 0.254983 0.122498 -0.0702676 0.118067 -0.0689132 -0.0702676 -0.257507 -0.0689132 -0.2504 0.118067 -0.0689132 0.11369 -0.0675118 -0.0689132 -0.2504 -0.0675118 -0.243745 0.305 0.254983 0.296782 0.24836 0.11369 -0.0675118 0.10929 -0.0657193 0.10929 -0.0657193 0.10525 -0.0648538 -0.0671144 0.113751 -0.0657701 0.109349 -0.0657701 0.109349 -0.0648556 0.105261 0.10525 -0.0648538 0.101367 -0.0635136 -0.0648538 -0.229613 -0.0635136 -0.223769 0.101367 -0.0635136 0.0976217 -0.0621696 -0.0635136 -0.223769 -0.0621696 -0.217381 0.0976217 -0.0621696 0.0939584 -0.0606964 -0.0621696 -0.217381 -0.0606964 -0.211121 0.0939584 -0.0606964 0.0910641 -0.0591391 -0.0606964 -0.211121 -0.0591391 -0.205011 0.0910641 -0.0591391 0.0880013 -0.0575532 -0.0591391 -0.205011 -0.0575532 -0.198403 0.0880013 -0.0575532 0.0849695 -0.0559968 -0.0575532 -0.198403 -0.0559968 -0.19269 0.0849695 -0.0559968 0.0817342 -0.0544065 -0.0559968 -0.19269 -0.0544065 -0.186904 0.0817342 -0.0544065 0.0796088 -0.0527383 -0.0544065 -0.186904 -0.0527383 -0.181074 0 0.113833 0 0.110241 0 0.110241 0 0.10751 0 0.10751 0 0.104172 0.10751 0.205729 0.104172 0.199654 0 0.104172 0 0.100852 -0.229637 -0.0648556 -0.223771 -0.0635087 -0.0648556 0.105261 -0.0635087 0.101381 -0.223771 -0.0635087 -0.217378 -0.0621614 -0.0635087 0.101381 -0.0621614 0.0976371 -0.217378 -0.0621614 -0.211119 -0.060689 -0.0621614 0.0976371 -0.060689 0.0939752 -0.211119 -0.060689 -0.205012 -0.0591353 -0.060689 0.0939752 -0.0591353 0.0910774 0 0.167035 0 0.161733 0 0.161733 0 0.156501 -0.205012 -0.0591353 -0.198408 -0.0575554 -0.0591353 0.0910774 -0.0575554 0.0880074 -0.198408 -0.0575554 -0.192701 -0.0560062 -0.0575554 0.0880074 -0.0560062 0.0849645 -0.192701 -0.0560062 -0.186921 -0.0544238 -0.0560062 0.0849645 -0.0544238 0.081719 -0.186921 -0.0544238 -0.181097 -0.0527635 -0.0544238 0.081719 -0.0527635 0.0795845 0.113852 1.47295e-16 0.110257 1.42763e-16 0.110257 1.42763e-16 0.107521 1.38371e-16 0.205747 0.107521 0.199664 0.104179 0.107521 1.38371e-16 0.104179 1.34113e-16 0.104179 1.34113e-16 0.100856 1.29987e-16 0.16706 2.14312e-16 0.161759 2.07719e-16 0.161759 2.07719e-16 0.156513 2.01328e-16 0 0.14724 0 0.141945 0 0.141945 0 0.138012 0.181377 0.0710863 0.175791 0.0693364 0.175791 0.0693364 0.171056 0.0677094 0.0710863 -0.0455799 0.0693364 -0.0437286 -0.0455799 -0.158706 -0.0437286 -0.153348 0.0693364 -0.0437286 0.0677094 -0.0418496 -0.0437286 -0.153348 -0.0418496 -0.148095 0.171056 0.0677094 0.166473 0.066283 0.166473 0.066283 0.16214 0.0649811 0.0677094 -0.0418496 0.066283 -0.0399499 -0.0418496 -0.148095 -0.0399499 -0.142955 0.066283 -0.0399499 0.0649811 -0.0380306 -0.0399499 -0.142955 -0.0380306 -0.137932 0.16214 0.0649811 0.157936 0.0638505 0.157936 0.0638505 0.154518 0.0628073 0.0649811 -0.0380306 0.0638505 -0.0361149 -0.0380306 -0.137932 -0.0361149 -0.133042 0.0638505 -0.0361149 0.0628073 -0.0342218 -0.0361149 -0.133042 -0.0342218 -0.12831 0.232697 0.154518 0.226587 0.15074 0.154518 0.0628073 0.15074 0.0618544 0.226587 0.15074 0.220783 0.147186 0.15074 0.0618544 0.147186 0.060914 0.0628073 -0.0342218 0.0618544 -0.0323855 -0.0342218 -0.12831 -0.0323855 -0.123771 0.0618544 -0.0323855 0.060914 -0.0306044 -0.0323855 -0.123771 -0.0306044 -0.119487 0.147258 1.8913e-16 0.142029 1.83311e-16 0.142029 1.83311e-16 0.138182 1.77671e-16 -0.158775 -0.0456603 -0.153436 -0.0438366 -0.0456603 0.0709999 -0.0438366 0.069214 -0.153436 -0.0438366 -0.148202 -0.0419908 -0.0438366 0.069214 -0.0419908 0.0675377 0.0709999 0.181293 0.069214 0.175667 0.069214 0.175667 0.0675377 0.170871 -0.148202 -0.0419908 -0.14307 -0.0401248 -0.0419908 0.0675377 -0.0401248 0.0660482 -0.14307 -0.0401248 -0.138027 -0.0382203 -0.0401248 0.0660482 -0.0382203 0.064656 0.0675377 0.170871 0.0660482 0.166206 0.0660482 0.166206 0.064656 0.161766 -0.138027 -0.0382203 -0.133008 -0.0362939 -0.0382203 0.064656 -0.0362939 0.0634179 -0.133008 -0.0362939 -0.128635 -0.0342757 -0.0362939 0.0634179 -0.0342757 0.0623506 0.0796088 -0.0527383 0.0772499 -0.0509668 -0.0527383 -0.181074 -0.0509668 -0.175285 0.0772499 -0.0509668 0.0750091 -0.0491987 -0.0509668 -0.175285 -0.0491987 -0.169656 0.0750091 -0.0491987 0.0729857 -0.0474066 -0.0491987 -0.169656 -0.0474066 -0.164145 0.0729857 -0.0474066 0.0710863 -0.0455799 -0.0474066 -0.164145 -0.0455799 -0.158706 -0.181097 -0.0527635 -0.175317 -0.0510006 -0.0527635 0.0795845 -0.0510006 0.0772167 -0.175317 -0.0510006 -0.169697 -0.0492434 -0.0510006 0.0772167 -0.0492434 0.0749644 -0.169697 -0.0492434 -0.164197 -0.0474662 -0.0492434 0.0749644 -0.0474662 0.0729242 -0.164197 -0.0474662 -0.158775 -0.0456603 -0.0474662 0.0729242 -0.0456603 0.0709999 0 0.121244 0 0.117363 0.121244 0.233023 0.117363 0.225219 0 0.117363 0 0.113833 0.117363 0.225219 0.113833 0.218665 0.232965 0.121166 0.225253 0.117368 0.121166 1.56794e-16 0.117368 1.5197e-16 0.225253 0.117368 0.218701 0.113852 0.117368 1.5197e-16 0.113852 1.47295e-16 -0.128635 -0.0342757 -0.124002 -0.0323699 -0.0342757 0.0623506 -0.0323699 0.0614937 -0.124002 -0.0323699 -0.119487 -0.0306044 -0.0323699 0.0614937 -0.0306044 0.060914 0.0623506 0.153437 0.0614937 0.149748 0.153437 0.231981 0.149748 0.225978 0.0614937 0.149748 0.060914 0.147186 0.149748 0.225978 0.147186 0.220783 0 0.100852 0 0.0979022 0.100852 0.193901 0.0979022 0.188216 0 0.0979022 0 0.0951151 0.0979022 0.188216 0.0951151 0.182899 0 0.0951151 0 0.0925775 0.0951151 0.182899 0.0925775 0.177952 0 0.0925775 0 0.090637 0.0925775 0.177952 0.090637 0.173468 0.193908 0.100856 0.188221 0.0979056 0.100856 1.29987e-16 0.0979056 1.25988e-16 0.188221 0.0979056 0.182902 0.0951174 0.0979056 1.25988e-16 0.0951174 1.22112e-16 0.182902 0.0951174 0.177954 0.0925787 0.0951174 1.22112e-16 0.0925787 1.18355e-16 0.177954 0.0925787 0.173468 0.090637 0.0925787 1.18355e-16 0.090637 1.14713e-16 0.215688 0.317839 0.212628 0.31263 0.317839 0.413073 0.31263 0.406308 0.212628 0.31263 0.209568 0.305166 0.31263 0.406308 0.305166 0.400764 0.400764 0.483827 0.394405 0.476031 0.394405 0.476031 0.388046 0.468435 0.388046 0.468435 0.380967 0.460857 0.380967 0.460857 0.375051 0.453387 0.375051 0.453387 0.369095 0.446055 0.369095 0.446055 0.363165 0.439076 0.471536 0.56998 0.46378 0.56032 0.56998 0.656086 0.56032 0.64501 0.46378 0.56032 0.456025 0.551073 0.56032 0.64501 0.551073 0.634313 0.656086 0.72799 0.64501 0.715616 0.72799 0.784135 0.715616 0.770752 0.64501 0.715616 0.634313 0.703765 0.715616 0.770752 0.703765 0.758343 0.456025 0.551073 0.4488 0.542067 0.551073 0.634313 0.542067 0.62391 0.4488 0.542067 0.441575 0.533149 0.542067 0.62391 0.533149 0.613714 0.634313 0.703765 0.62391 0.692244 0.703765 0.758343 0.692244 0.745827 0.62391 0.692244 0.613714 0.680933 0.692244 0.745827 0.680933 0.733601 0.483842 0.400776 0.476048 0.394418 0.476048 0.394418 0.468453 0.38806 0.441575 0.533149 0.433461 0.524379 0.533149 0.613714 0.524379 0.603687 0.433461 0.524379 0.426655 0.515773 0.524379 0.603687 0.515773 0.593851 0.468453 0.38806 0.460876 0.380983 0.460876 0.380983 0.453407 0.375067 0.453407 0.375067 0.446076 0.369113 0.446076 0.369113 0.439099 0.363184 0.613714 0.680933 0.603687 0.669844 0.680933 0.733601 0.669844 0.721698 0.603687 0.669844 0.593851 0.658913 0.669844 0.721698 0.658913 0.710009 -0.556258 -0.588626 -0.547901 -0.579712 -0.588626 -0.608243 -0.579712 -0.599085 -0.608243 -0.614837 -0.599085 -0.605595 -0.547901 -0.579712 -0.539576 -0.570922 -0.539576 -0.570922 -0.531706 -0.562384 -0.579712 -0.599085 -0.570922 -0.590144 -0.599085 -0.605595 -0.590144 -0.596486 0.363165 0.439076 0.357083 0.431745 0.439076 0.505332 0.431745 0.496871 0.357083 0.431745 0.352538 0.421314 0.431745 0.496871 0.421314 0.490089 0.426655 0.515773 0.419816 0.507455 0.515773 0.593851 0.507455 0.584214 0.419816 0.507455 0.413073 0.499298 0.507455 0.584214 0.499298 0.574808 0.66627 0.606485 0.655317 0.596473 0.593851 0.658913 0.584214 0.648187 0.658913 0.710009 0.648187 0.69811 0.584214 0.648187 0.574808 0.637679 0.648187 0.69811 0.637679 0.686945 0.758343 0.796512 0.745827 0.783069 0.796512 0.817031 0.783069 0.803284 0.745827 0.783069 0.733601 0.77022 0.783069 0.803284 0.77022 0.790454 0.505359 0.439099 0.4969 0.43177 0.439099 0.363184 0.43177 0.357103 0.4969 0.43177 0.49012 0.42134 0.43177 0.357103 0.42134 0.35256 0.832434 0.799128 0.81841 0.785462 0.799128 0.748524 0.785462 0.735758 0.81841 0.785462 0.804815 0.772394 0.785462 0.735758 0.772394 0.723481 0.748524 0.681716 0.735758 0.669948 0.681716 0.600151 0.669948 0.589787 0.735758 0.66994