# vtk DataFile Version 3.0
#This file was generated by the deal.II library on 2018/12/4 at 0:47:15
ASCII
DATASET UNSTRUCTURED_GRID

POINTS 1552 double
0.625 0.875 0
0.75 0.875 0
0.625 1 0
0.75 1 0
0.25 0.625 0
0.375 0.625 0
0.25 0.75 0
0.375 0.75 0
0.125 0.75 0
0.25 0.75 0
0.125 0.875 0
0.25 0.875 0
0 0.875 0
0.125 0.875 0
0 1 0
0.125 1 0
0.125 0.875 0
0.25 0.875 0
0.125 1 0
0.25 1 0
0.625 0.625 0
0.75 0.625 0
0.625 0.75 0
0.75 0.75 0
0.75 0.75 0
0.875 0.75 0
0.75 0.875 0
0.875 0.875 0
0.75 0.875 0
0.875 0.875 0
0.75 1 0
0.875 1 0
0.875 0.875 0
1 0.875 0
0.875 1 0
1 1 0
0 0.125 0
0.0625 0.125 0
0 0.1875 0
0.0625 0.1875 0
0.0625 0.125 0
0.125 0.125 0
0.0625 0.1875 0
0.125 0.1875 0
0 0.1875 0
0.0625 0.1875 0
0 0.25 0
0.0625 0.25 0
0.0625 0.1875 0
0.125 0.1875 0
0.0625 0.25 0
0.125 0.25 0
0.25 0 0
0.3125 0 0
0.25 0.0625 0
0.3125 0.0625 0
0.3125 0 0
0.375 0 0
0.3125 0.0625 0
0.375 0.0625 0
0.25 0.0625 0
0.3125 0.0625 0
0.25 0.125 0
0.3125 0.125 0
0.3125 0.0625 0
0.375 0.0625 0
0.3125 0.125 0
0.375 0.125 0
0.375 0.25 0
0.4375 0.25 0
0.375 0.3125 0
0.4375 0.3125 0
0.4375 0.25 0
0.5 0.25 0
0.4375 0.3125 0
0.5 0.3125 0
0.375 0.3125 0
0.4375 0.3125 0
0.375 0.375 0
0.4375 0.375 0
0 0 0
0.0625 0 0
0 0.0625 0
0.0625 0.0625 0
0 0.0625 0
0.0625 0.0625 0
0 0.125 0
0.0625 0.125 0
0.625 0 0
0.6875 0 0
0.625 0.0625 0
0.6875 0.0625 0
0.6875 0 0
0.75 0 0
0.6875 0.0625 0
0.75 0.0625 0
0.625 0.0625 0
0.6875 0.0625 0
0.625 0.125 0
0.6875 0.125 0
0.6875 0.0625 0
0.75 0.0625 0
0.6875 0.125 0
0.75 0.125 0
0.875 0.125 0
0.9375 0.125 0
0.875 0.1875 0
0.9375 0.1875 0
0.9375 0.125 0
1 0.125 0
0.9375 0.1875 0
1 0.1875 0
0.875 0.1875 0
0.9375 0.1875 0
0.875 0.25 0
0.9375 0.25 0
0.9375 0.1875 0
1 0.1875 0
0.9375 0.25 0
1 0.25 0
0.5 0.25 0
0.5625 0.25 0
0.5 0.3125 0
0.5625 0.3125 0
0.5625 0.25 0
0.625 0.25 0
0.5625 0.3125 0
0.625 0.3125 0
0.5625 0.3125 0
0.625 0.3125 0
0.5625 0.375 0
0.625 0.375 0
0 0.25 0
0.0625 0.25 0
0 0.3125 0
0.0625 0.3125 0
0.0625 0.25 0
0.125 0.25 0
0.0625 0.3125 0
0.125 0.3125 0
0 0.3125 0
0.0625 0.3125 0
0 0.375 0
0.0625 0.375 0
0.125 0.25 0
0.1875 0.25 0
0.125 0.3125 0
0.1875 0.3125 0
0.1875 0.25 0
0.25 0.25 0
0.1875 0.3125 0
0.25 0.3125 0
0.25 0.125 0
0.3125 0.125 0
0.25 0.1875 0
0.3125 0.1875 0
0.3125 0.125 0
0.375 0.125 0
0.3125 0.1875 0
0.375 0.1875 0
0.25 0.1875 0
0.3125 0.1875 0
0.25 0.25 0
0.3125 0.25 0
0.3125 0.1875 0
0.375 0.1875 0
0.3125 0.25 0
0.375 0.25 0
0.375 0.1875 0
0.4375 0.1875 0
0.375 0.25 0
0.4375 0.25 0
0.75 0.25 0
0.8125 0.25 0
0.75 0.3125 0
0.8125 0.3125 0
0.8125 0.25 0
0.875 0.25 0
0.8125 0.3125 0
0.875 0.3125 0
0.875 0.25 0
0.9375 0.25 0
0.875 0.3125 0
0.9375 0.3125 0
0.9375 0.25 0
1 0.25 0
0.9375 0.3125 0
1 0.3125 0
0.9375 0.3125 0
1 0.3125 0
0.9375 0.375 0
1 0.375 0
0.25 0.25 0
0.3125 0.25 0
0.25 0.3125 0
0.3125 0.3125 0
0.3125 0.25 0
0.375 0.25 0
0.3125 0.3125 0
0.375 0.3125 0
0.25 0.3125 0
0.3125 0.3125 0
0.25 0.375 0
0.3125 0.375 0
0.3125 0.3125 0
0.375 0.3125 0
0.3125 0.375 0
0.375 0.375 0
0.625 0.125 0
0.6875 0.125 0
0.625 0.1875 0
0.6875 0.1875 0
0.6875 0.125 0
0.75 0.125 0
0.6875 0.1875 0
0.75 0.1875 0
0.625 0.1875 0
0.6875 0.1875 0
0.625 0.25 0
0.6875 0.25 0
0.6875 0.1875 0
0.75 0.1875 0
0.6875 0.25 0
0.75 0.25 0
0.9375 0 0
1 0 0
0.9375 0.0625 0
1 0.0625 0
0.9375 0.0625 0
1 0.0625 0
0.9375 0.125 0
1 0.125 0
0.625 0.25 0
0.6875 0.25 0
0.625 0.3125 0
0.6875 0.3125 0
0.6875 0.25 0
0.75 0.25 0
0.6875 0.3125 0
0.75 0.3125 0
0.625 0.3125 0
0.6875 0.3125 0
0.625 0.375 0
0.6875 0.375 0
0.6875 0.3125 0
0.75 0.3125 0
0.6875 0.375 0
0.75 0.375 0
0 0.625 0
0.0625 0.625 0
0 0.6875 0
0.0625 0.6875 0
0 0.6875 0
0.0625 0.6875 0
0 0.75 0
0.0625 0.75 0
0.9375 0.625 0
1 0.625 0
0.9375 0.6875 0
1 0.6875 0
0.9375 0.6875 0
1 0.6875 0
0.9375 0.75 0
1 0.75 0
0.25 0.375 0
0.3125 0.375 0
0.25 0.4375 0
0.3125 0.4375 0
0.3125 0.375 0
0.375 0.375 0
0.3125 0.4375 0
0.375 0.4375 0
0.25 0.4375 0
0.3125 0.4375 0
0.25 0.5 0
0.3125 0.5 0
0.3125 0.4375 0
0.375 0.4375 0
0.3125 0.5 0
0.375 0.5 0
0.3125 0.5 0
0.375 0.5 0
0.3125 0.5625 0
0.375 0.5625 0
0.25 0.5625 0
0.3125 0.5625 0
0.25 0.625 0
0.3125 0.625 0
0.3125 0.5625 0
0.375 0.5625 0
0.3125 0.625 0
0.375 0.625 0
0.375 0.5 0
0.4375 0.5 0
0.375 0.5625 0
0.4375 0.5625 0
0.375 0.5625 0
0.4375 0.5625 0
0.375 0.625 0
0.4375 0.625 0
0.4375 0.5625 0
0.5 0.5625 0
0.4375 0.625 0
0.5 0.625 0
0.375 0.375 0
0.4375 0.375 0
0.375 0.4375 0
0.4375 0.4375 0
0.4375 0.375 0
0.5 0.375 0
0.4375 0.4375 0
0.5 0.4375 0
0.375 0.4375 0
0.4375 0.4375 0
0.375 0.5 0
0.4375 0.5 0
0.4375 0.4375 0
0.5 0.4375 0
0.4375 0.5 0
0.5 0.5 0
0.375 0.625 0
0.4375 0.625 0
0.375 0.6875 0
0.4375 0.6875 0
0.4375 0.625 0
0.5 0.625 0
0.4375 0.6875 0
0.5 0.6875 0
0.375 0.6875 0
0.4375 0.6875 0
0.375 0.75 0
0.4375 0.75 0
0 0.75 0
0.0625 0.75 0
0 0.8125 0
0.0625 0.8125 0
0.0625 0.75 0
0.125 0.75 0
0.0625 0.8125 0
0.125 0.8125 0
0 0.8125 0
0.0625 0.8125 0
0 0.875 0
0.0625 0.875 0
0.0625 0.8125 0
0.125 0.8125 0
0.0625 0.875 0
0.125 0.875 0
0.5 0.375 0
0.5625 0.375 0
0.5 0.4375 0
0.5625 0.4375 0
0.5625 0.375 0
0.625 0.375 0
0.5625 0.4375 0
0.625 0.4375 0
0.5 0.4375 0
0.5625 0.4375 0
0.5 0.5 0
0.5625 0.5 0
0.5625 0.4375 0
0.625 0.4375 0
0.5625 0.5 0
0.625 0.5 0
0.625 0.375 0
0.6875 0.375 0
0.625 0.4375 0
0.6875 0.4375 0
0.6875 0.375 0
0.75 0.375 0
0.6875 0.4375 0
0.75 0.4375 0
0.625 0.4375 0
0.6875 0.4375 0
0.625 0.5 0
0.6875 0.5 0
0.6875 0.4375 0
0.75 0.4375 0
0.6875 0.5 0
0.75 0.5 0
0 0.375 0
0.0625 0.375 0
0 0.4375 0
0.0625 0.4375 0
0.0625 0.375 0
0.125 0.375 0
0.0625 0.4375 0
0.125 0.4375 0
0 0.4375 0
0.0625 0.4375 0
0 0.5 0
0.0625 0.5 0
0.0625 0.4375 0
0.125 0.4375 0
0.0625 0.5 0
0.125 0.5 0
0.5625 0.5 0
0.625 0.5 0
0.5625 0.5625 0
0.625 0.5625 0
0.5 0.5625 0
0.5625 0.5625 0
0.5 0.625 0
0.5625 0.625 0
0.5625 0.5625 0
0.625 0.5625 0
0.5625 0.625 0
0.625 0.625 0
0.625 0.5 0
0.6875 0.5 0
0.625 0.5625 0
0.6875 0.5625 0
0.625 0.5625 0
0.6875 0.5625 0
0.625 0.625 0
0.6875 0.625 0
0.6875 0.5625 0
0.75 0.5625 0
0.6875 0.625 0
0.75 0.625 0
0.5 0.625 0
0.5625 0.625 0
0.5 0.6875 0
0.5625 0.6875 0
0.5625 0.625 0
0.625 0.625 0
0.5625 0.6875 0
0.625 0.6875 0
0.5625 0.6875 0
0.625 0.6875 0
0.5625 0.75 0
0.625 0.75 0
0.125 0.375 0
0.1875 0.375 0
0.125 0.4375 0
0.1875 0.4375 0
0.1875 0.375 0
0.25 0.375 0
0.1875 0.4375 0
0.25 0.4375 0
0.125 0.4375 0
0.1875 0.4375 0
0.125 0.5 0
0.1875 0.5 0
0.1875 0.4375 0
0.25 0.4375 0
0.1875 0.5 0
0.25 0.5 0
0.75 0.375 0
0.8125 0.375 0
0.75 0.4375 0
0.8125 0.4375 0
0.8125 0.375 0
0.875 0.375 0
0.8125 0.4375 0
0.875 0.4375 0
0.75 0.4375 0
0.8125 0.4375 0
0.75 0.5 0
0.8125 0.5 0
0.8125 0.4375 0
0.875 0.4375 0
0.8125 0.5 0
0.875 0.5 0
0.875 0.75 0
0.9375 0.75 0
0.875 0.8125 0
0.9375 0.8125 0
0.9375 0.75 0
1 0.75 0
0.9375 0.8125 0
1 0.8125 0
0.875 0.8125 0
0.9375 0.8125 0
0.875 0.875 0
0.9375 0.875 0
0.9375 0.8125 0
1 0.8125 0
0.9375 0.875 0
1 0.875 0
0.875 0.375 0
0.9375 0.375 0
0.875 0.4375 0
0.9375 0.4375 0
0.9375 0.375 0
1 0.375 0
0.9375 0.4375 0
1 0.4375 0
0.875 0.4375 0
0.9375 0.4375 0
0.875 0.5 0
0.9375 0.5 0
0.9375 0.4375 0
1 0.4375 0
0.9375 0.5 0
1 0.5 0
0 0.5 0
0.0625 0.5 0
0 0.5625 0
0.0625 0.5625 0
0.0625 0.5 0
0.125 0.5 0
0.0625 0.5625 0
0.125 0.5625 0
0 0.5625 0
0.0625 0.5625 0
0 0.625 0
0.0625 0.625 0
0.0625 0.5625 0
0.125 0.5625 0
0.0625 0.625 0
0.125 0.625 0
0.125 0.5 0
0.1875 0.5 0
0.125 0.5625 0
0.1875 0.5625 0
0.1875 0.5 0
0.25 0.5 0
0.1875 0.5625 0
0.25 0.5625 0
0.125 0.5625 0
0.1875 0.5625 0
0.125 0.625 0
0.1875 0.625 0
0.1875 0.5625 0
0.25 0.5625 0
0.1875 0.625 0
0.25 0.625 0
0.125 0.625 0
0.1875 0.625 0
0.125 0.6875 0
0.1875 0.6875 0
0.1875 0.625 0
0.25 0.625 0
0.1875 0.6875 0
0.25 0.6875 0
0.125 0.6875 0
0.1875 0.6875 0
0.125 0.75 0
0.1875 0.75 0
0.1875 0.6875 0
0.25 0.6875 0
0.1875 0.75 0
0.25 0.75 0
0.25 0.75 0
0.3125 0.75 0
0.25 0.8125 0
0.3125 0.8125 0
0.3125 0.75 0
0.375 0.75 0
0.3125 0.8125 0
0.375 0.8125 0
0.25 0.8125 0
0.3125 0.8125 0
0.25 0.875 0
0.3125 0.875 0
0.3125 0.8125 0
0.375 0.8125 0
0.3125 0.875 0
0.375 0.875 0
0.375 0.75 0
0.4375 0.75 0
0.375 0.8125 0
0.4375 0.8125 0
0.4375 0.75 0
0.5 0.75 0
0.4375 0.8125 0
0.5 0.8125 0
0.375 0.8125 0
0.4375 0.8125 0
0.375 0.875 0
0.4375 0.875 0
0.4375 0.8125 0
0.5 0.8125 0
0.4375 0.875 0
0.5 0.875 0
0.25 0.875 0
0.3125 0.875 0
0.25 0.9375 0
0.3125 0.9375 0
0.3125 0.875 0
0.375 0.875 0
0.3125 0.9375 0
0.375 0.9375 0
0.25 0.9375 0
0.3125 0.9375 0
0.25 1 0
0.3125 1 0
0.3125 0.9375 0
0.375 0.9375 0
0.3125 1 0
0.375 1 0
0.375 0.875 0
0.4375 0.875 0
0.375 0.9375 0
0.4375 0.9375 0
0.4375 0.875 0
0.5 0.875 0
0.4375 0.9375 0
0.5 0.9375 0
0.375 0.9375 0
0.4375 0.9375 0
0.375 1 0
0.4375 1 0
0.4375 0.9375 0
0.5 0.9375 0
0.4375 1 0
0.5 1 0
0.75 0.5 0
0.8125 0.5 0
0.75 0.5625 0
0.8125 0.5625 0
0.8125 0.5 0
0.875 0.5 0
0.8125 0.5625 0
0.875 0.5625 0
0.75 0.5625 0
0.8125 0.5625 0
0.75 0.625 0
0.8125 0.625 0
0.8125 0.5625 0
0.875 0.5625 0
0.8125 0.625 0
0.875 0.625 0
0.875 0.5 0
0.9375 0.5 0
0.875 0.5625 0
0.9375 0.5625 0
0.9375 0.5 0
1 0.5 0
0.9375 0.5625 0
1 0.5625 0
0.875 0.5625 0
0.9375 0.5625 0
0.875 0.625 0
0.9375 0.625 0
0.9375 0.5625 0
1 0.5625 0
0.9375 0.625 0
1 0.625 0
0.75 0.625 0
0.8125 0.625 0
0.75 0.6875 0
0.8125 0.6875 0
0.8125 0.625 0
0.875 0.625 0
0.8125 0.6875 0
0.875 0.6875 0
0.75 0.6875 0
0.8125 0.6875 0
0.75 0.75 0
0.8125 0.75 0
0.8125 0.6875 0
0.875 0.6875 0
0.8125 0.75 0
0.875 0.75 0
0.5 0.75 0
0.5625 0.75 0
0.5 0.8125 0
0.5625 0.8125 0
0.5625 0.75 0
0.625 0.75 0
0.5625 0.8125 0
0.625 0.8125 0
0.5 0.8125 0
0.5625 0.8125 0
0.5 0.875 0
0.5625 0.875 0
0.5625 0.8125 0
0.625 0.8125 0
0.5625 0.875 0
0.625 0.875 0
0.625 0.75 0
0.6875 0.75 0
0.625 0.8125 0
0.6875 0.8125 0
0.6875 0.75 0
0.75 0.75 0
0.6875 0.8125 0
0.75 0.8125 0
0.625 0.8125 0
0.6875 0.8125 0
0.625 0.875 0
0.6875 0.875 0
0.6875 0.8125 0
0.75 0.8125 0
0.6875 0.875 0
0.75 0.875 0
0.5 0.875 0
0.5625 0.875 0
0.5 0.9375 0
0.5625 0.9375 0
0.5625 0.875 0
0.625 0.875 0
0.5625 0.9375 0
0.625 0.9375 0
0.5 0.9375 0
0.5625 0.9375 0
0.5 1 0
0.5625 1 0
0.5625 0.9375 0
0.625 0.9375 0
0.5625 1 0
0.625 1 0
0.4375 0.3125 0
0.46875 0.3125 0
0.4375 0.34375 0
0.46875 0.34375 0
[...]
POINT_DATA 1552
SCALARS U double 1
LOOKUP_TABLE default
-0.141458 0.25894 -0.127895 0.236319 0.312094 -0.188085 0.290586 -0.163968 0.38374 0.290586 0.343204 0.256701 0 0.343204 0 0.308765 0.343204 0.256701 0.308765 0.236319 -0.188032 0.312198 -0.163794 0.290381 0.290381 0.384115 0.25894 0.343527 0.25894 0.343527 0.236319 0.308765 0.343527 1.39134e-16 0.308765 1.22785e-16 0 0.43823 0 0.40728 0.43823 0.727995 0.40728 0.673045 0 0.40728 0 0.379535 0.40728 0.673045 0.379535 0.632841 0.642381 0.177233 0.595039 0.162541 0.177233 -0.347654 0.162541 -0.325575 0.595039 0.162541 0.551303 0.148075 0.162541 -0.325575 0.148075 -0.304513 -0.274935 -0.586257 -0.259747 -0.548644 -0.586257 -0.706315 -0.548644 -0.661792 -0.259747 -0.548644 -0.244869 -0.514163 0 0.504716 0 0.466488 0 0.466488 0 0.43823 -0.347654 0.177233 -0.32572 0.162456 0.177233 0.642381 0.162456 0.595116 -0.32572 0.162456 -0.30582 0.148556 0.162456 0.595116 0.148556 0.551471 0.728022 0.438238 0.673077 0.407289 0.438238 2.94546e-16 0.407289 2.767e-16 0.673077 0.407289 0.632868 0.379543 0.407289 2.767e-16 0.379543 2.59936e-16 -0.706315 -0.588784 -0.661792 -0.549044 -0.588784 -0.275425 -0.549044 -0.260086 -0.549044 -0.260086 -0.514254 -0.244963 0 0.379535 0 0.352917 0.379535 0.632841 0.352917 0.590198 0 0.352917 0 0.328488 0.632841 0.674225 0.590198 0.624575 0.674225 0.478934 0.624575 0.443085 0.551303 0.148075 0.509998 0.135217 0.148075 -0.304513 0.135217 -0.291597 0.509998 0.135217 0.478934 0.123107 0.135217 -0.291597 0.123107 -0.274935 -0.291597 -0.619749 -0.274935 -0.586257 0.47913 0.674302 0.443192 0.624623 0.674302 0.632868 0.624623 0.590216 0.632868 0.379543 0.590216 0.352923 0.379543 2.59936e-16 0.352923 2.44187e-16 0.352923 2.44187e-16 0.328491 2.29393e-16 0.478934 0.123107 0.443085 0.11261 0.123107 -0.274935 0.11261 -0.259747 0.443085 0.11261 0.410709 0.102649 0.11261 -0.259747 0.102649 -0.244869 -0.30582 0.148556 -0.287311 0.135749 0.148556 0.551471 0.135749 0.510258 -0.287311 0.135749 -0.275425 0.123691 0.135749 0.510258 0.123691 0.47913 0.504716 3.33764e-16 0.466492 3.13543e-16 0.466492 3.13543e-16 0.438238 2.94546e-16 -0.275425 0.123691 -0.260086 0.112616 0.123691 0.47913 0.112616 0.443192 -0.260086 0.112616 -0.244963 0.102614 0.112616 0.443192 0.102614 0.410723 0 0.252565 0 0.235358 0 0.235358 0 0.227952 0.252601 1.78651e-16 0.235438 1.67827e-16 0.235438 1.67827e-16 0.22808 1.57659e-16 0.410709 0.102649 0.382784 0.0939538 0.102649 -0.244869 0.0939538 -0.230826 0.382784 0.0939538 0.356333 0.0862361 0.0939538 -0.230826 0.0862361 -0.217705 0.0862361 -0.217705 0.0789833 -0.20583 0.331581 0.0789833 0.312094 0.0620048 0.0789833 -0.20583 0.0620048 -0.188085 -0.217705 -0.453267 -0.20583 -0.425269 -0.20583 -0.425269 -0.188085 -0.399645 -0.425269 -0.512083 -0.399645 -0.478152 -0.244869 -0.514163 -0.230826 -0.483749 -0.514163 -0.619803 -0.483749 -0.578499 -0.230826 -0.483749 -0.217705 -0.453267 -0.483749 -0.578499 -0.453267 -0.545267 -0.188085 -0.399645 -0.176026 -0.372822 -0.399645 -0.478152 -0.372822 -0.449797 -0.176026 -0.372822 -0.163968 -0.349024 0 0.227952 0 0.213243 0.227952 0.38374 0.213243 0.363472 0 0.213243 0 0.171602 0.213243 0.363472 0.171602 0.343204 -0.619803 -0.514254 -0.578499 -0.483769 -0.514254 -0.244963 -0.483769 -0.23085 -0.578499 -0.483769 -0.545267 -0.453267 -0.483769 -0.23085 -0.453267 -0.217702 -0.244963 0.102614 -0.23085 0.0939407 0.102614 0.410723 0.0939407 0.382784 -0.23085 0.0939407 -0.217702 0.0862433 0.0939407 0.382784 0.0862433 0.356344 0 0.328488 0 0.307124 0.328488 0.548961 0.307124 0.509966 0 0.307124 0 0.286677 0.307124 0.509966 0.286677 0.475738 -0.453267 -0.217702 -0.425255 -0.205804 -0.512083 -0.425255 -0.478152 -0.399605 -0.425255 -0.205804 -0.399605 -0.188032 -0.217702 0.0862433 -0.205804 0.07902 -0.205804 0.07902 -0.188032 0.0620828 0.07902 0.33162 0.0620828 0.312198 -0.478152 -0.399605 -0.449797 -0.372745 -0.399605 -0.188032 -0.372745 -0.175913 -0.372745 -0.175913 -0.348945 -0.163794 0.548961 0.580404 0.509966 0.538647 0.580404 0.410709 0.538647 0.382784 0.509966 0.538647 0.475738 0.502121 0.538647 0.382784 0.502121 0.356333 0.410723 0.580424 0.382784 0.538653 0.580424 0.548969 0.538653 0.509971 0.382784 0.538653 0.356344 0.502133 0.538653 0.509971 0.502133 0.475747 0.384115 0.22808 0.363821 0.213397 0.22808 1.57659e-16 0.213397 1.48107e-16 0.363821 0.213397 0.343527 0.171764 0.213397 1.48107e-16 0.171764 1.39134e-16 0.548969 0.328491 0.509971 0.307126 0.328491 2.29393e-16 0.307126 2.15494e-16 0.509971 0.307126 0.475747 0.286682 0.307126 2.15494e-16 0.286682 2.02438e-16 0 0.286677 0 0.268462 0.286677 0.475738 0.268462 0.445284 0 0.268462 0 0.252565 0.268462 0.445284 0.252565 0.418147 0.475738 0.502121 0.445284 0.469687 0.502121 0.356333 0.469687 0.331581 0.445284 0.469687 0.418147 0.440412 0.469687 0.331581 0.440412 0.312094 0.418147 0.440412 0.385176 0.411615 0.440412 0.312094 0.411615 0.30134 0.385176 0.411615 0.38374 0.337163 0.411615 0.30134 0.337163 0.290586 0.290586 0.0633087 0.273643 0.0699811 0.0633087 -0.163968 0.0699811 -0.155147 0.273643 0.0699811 0.256701 0.0681473 0.0699811 -0.155147 0.0681473 -0.144201 -0.163968 -0.349024 -0.155147 -0.327772 -0.349024 -0.421056 -0.327772 -0.392706 -0.155147 -0.327772 -0.144201 -0.308094 -0.327772 -0.392706 -0.308094 -0.369339 0.256701 0.0681473 0.24651 0.0663339 0.0681473 -0.144201 0.0663339 -0.135333 0.24651 0.0663339 0.236319 0.0652002 0.0663339 -0.135333 0.0652002 -0.127895 -0.144201 -0.308094 -0.135333 -0.291478 -0.308094 -0.369339 -0.291478 -0.349977 -0.135333 -0.291478 -0.127895 -0.277882 -0.291478 -0.349977 -0.277882 -0.334205 0.356344 0.502133 0.33162 0.469722 0.502133 0.475747 0.469722 0.445308 0.33162 0.469722 0.312198 0.440466 0.469722 0.445308 0.440466 0.418202 0.475747 0.286682 0.445308 0.268476 0.286682 2.02438e-16 0.268476 1.90173e-16 0.445308 0.268476 0.418202 0.252601 0.268476 1.90173e-16 0.252601 1.78651e-16 0.312198 0.440466 0.301289 0.411701 0.440466 0.418202 0.411701 0.385286 0.301289 0.411701 0.290381 0.337248 0.411701 0.385286 0.337248 0.384115 -0.421056 -0.348945 -0.392706 -0.32733 -0.348945 -0.163794 -0.32733 -0.155675 -0.392706 -0.32733 -0.369339 -0.307568 -0.32733 -0.155675 -0.307568 -0.141458 -0.163794 0.0632934 -0.155675 0.0697393 0.0632934 0.290381 0.0697393 0.27466 -0.155675 0.0697393 -0.141458 0.0587411 0.0697393 0.27466 0.0587411 0.25894 -0.369339 -0.307568 -0.349977 -0.290982 -0.307568 -0.141458 -0.290982 -0.134676 -0.349977 -0.290982 -0.334205 -0.277882 -0.290982 -0.134676 -0.277882 -0.127895 -0.548644 -0.605218 -0.531403 -0.602917 -0.605218 -0.661792 -0.602917 -0.623818 -0.531403 -0.602917 -0.514163 -0.566983 -0.602917 -0.623818 -0.566983 -0.619803 0.504716 0.702252 0.485602 0.676011 0.702252 0.839311 0.676011 0.80826 0.485602 0.676011 0.466488 0.650818 0.676011 0.80826 0.650818 0.778137 0.466488 0.650818 0.452359 0.62565 0.650818 0.778137 0.62565 0.748016 0.452359 0.62565 0.43823 0.583113 0.62565 0.748016 0.583113 0.727995 0.839311 0.90409 0.80826 0.870782 0.90409 0.891008 0.870782 0.858226 0.80826 0.870782 0.778137 0.838603 0.870782 0.858226 0.838603 0.826698 0.891008 0.801194 0.858226 0.771631 0.801194 0.642381 0.771631 0.61871 0.858226 0.771631 0.826698 0.743108 0.771631 0.61871 0.743108 0.595039 0.778137 0.838603 0.748016 0.808686 0.838603 0.826698 0.808686 0.796567 0.748016 0.808686 0.727995 0.780046 0.808686 0.796567 0.780046 0.767759 0.826698 0.743108 0.796567 0.715655 0.743108 0.595039 0.715655 0.573171 0.796567 0.715655 0.767759 0.689353 0.715655 0.573171 0.689353 0.551303 -0.661792 -0.605418 -0.623818 -0.603035 -0.605418 -0.549044 -0.603035 -0.531649 -0.623818 -0.603035 -0.619803 -0.567029 -0.603035 -0.531649 -0.567029 -0.514254 0.727995 0.780046 0.70052 0.752361 0.780046 0.767759 0.752361 0.739956 0.70052 0.752361 0.673045 0.724964 0.752361 0.739956 0.724964 0.712781 0.767759 0.689353 0.739956 0.663905 0.689353 0.551303 0.663905 0.530651 0.739956 0.663905 0.712781 0.639543 0.663905 0.530651 0.639543 0.509998 0.673045 0.724964 0.652943 0.698488 0.724964 0.712781 0.698488 0.684131 0.652943 0.698488 0.632841 0.653533 0.698488 0.684131 0.653533 0.674225 0.712781 0.639543 0.684131 0.616192 0.639543 0.509998 0.616192 0.494466 0.684131 0.616192 0.674225 0.57658 0.616192 0.494466 0.57658 0.478934 -0.347654 -0.576323 -0.336614 -0.556981 -0.576323 -0.75536 -0.556981 -0.729644 -0.336614 -0.556981 -0.325575 -0.538287 -0.556981 -0.729644 -0.538287 -0.704849 -0.75536 -0.869346 -0.729644 -0.839596 -0.869346 -0.908464 -0.839596 -0.877349 -0.729644 -0.839596 -0.704849 -0.810936 -0.839596 -0.877349 -0.810936 -0.847383 -0.325575 -0.538287 -0.315044 -0.520279 -0.538287 -0.704849 -0.520279 -0.681088 -0.315044 -0.520279 -0.304513 -0.503232 -0.520279 -0.681088 -0.503232 -0.658269 -0.704849 -0.810936 -0.681088 -0.783494 -0.810936 -0.847383 -0.783494 -0.818721 -0.681088 -0.783494 -0.658269 -0.757265 -0.783494 -0.818721 -0.757265 -0.791457 0.352917 0.471558 0.340703 0.468473 0.471558 0.590198 0.468473 0.554628 0.340703 0.468473 0.328488 0.438724 0.468473 0.554628 0.438724 0.548961 0.590198 0.607386 0.554628 0.601712 0.607386 0.624575 0.601712 0.586503 0.554628 0.601712 0.548961 0.564682 0.601712 0.586503 0.564682 0.580404 0.624575 0.53383 0.586503 0.529986 0.53383 0.443085 0.529986 0.426897 0.586503 0.529986 0.580404 0.495556 0.529986 0.426897 0.495556 0.410709 -0.304513 -0.503232 -0.298055 -0.486178 -0.503232 -0.658269 -0.486178 -0.63548 -0.298055 -0.486178 -0.291597 -0.455673 -0.486178 -0.63548 -0.455673 -0.619749 -0.658269 -0.757265 -0.63548 -0.732874 -0.757265 -0.791457 -0.732874 -0.765488 -0.63548 -0.732874 -0.619749 -0.70974 -0.732874 -0.765488 -0.70974 -0.740548 -0.619749 -0.70974 -0.603003 -0.687444 -0.70974 -0.740548 -0.687444 -0.714233 -0.603003 -0.687444 -0.586257 -0.646286 -0.687444 -0.714233 -0.646286 -0.706315 0.443192 0.533907 0.426957 0.530031 0.533907 0.624623 0.530031 0.586536 0.426957 0.530031 0.410723 0.495573 0.530031 0.586536 0.495573 0.580424 0.624623 0.607419 0.586536 0.601734 0.607419 0.590216 0.601734 0.554641 0.586536 0.601734 0.580424 0.564696 0.601734 0.554641 0.564696 0.548969 0.590216 0.471569 0.554641 0.468481 0.471569 0.352923 0.468481 0.340707 0.554641 0.468481 0.548969 0.43873 0.468481 0.340707 0.43873 0.328491 -0.908464 -0.869346 -0.877349 -0.839646 -0.869346 -0.75536 -0.839646 -0.729734 -0.877349 -0.839646 -0.847383 -0.811048 -0.839646 -0.729734 -0.811048 -0.705059 -0.75536 -0.576323 -0.729734 -0.557077 -0.576323 -0.347654 -0.557077 -0.336687 -0.729734 -0.557077 -0.705059 -0.538561 -0.557077 -0.336687 -0.538561 -0.32572 -0.847383 -0.811048 -0.818721 -0.783704 -0.811048 -0.705059 -0.783704 -0.681459 -0.818721 -0.783704 -0.791457 -0.757628 -0.783704 -0.681459 -0.757628 -0.658933 -0.705059 -0.538561 -0.681459 -0.520815 -0.538561 -0.32572 -0.520815 -0.31577 -0.681459 -0.520815 -0.658933 -0.503912 -0.520815 -0.31577 -0.503912 -0.30582 -0.791457 -0.757628 -0.765488 -0.732692 -0.757628 -0.658933 -0.732692 -0.637393 -0.765488 -0.732692 -0.740548 -0.70845 -0.732692 -0.637393 -0.70845 -0.616722 -0.658933 -0.503912 -0.637393 -0.487716 -0.503912 -0.30582 -0.487716 -0.296565 -0.637393 -0.487716 -0.616722 -0.47238 -0.487716 -0.296565 -0.47238 -0.287311 -0.740548 -0.70845 -0.714233 -0.686384 -0.70845 -0.616722 -0.686384 -0.595134 -0.714233 -0.686384 -0.706315 -0.64755 -0.686384 -0.595134 -0.64755 -0.588784 -0.616722 -0.47238 -0.595134 -0.458036 -0.47238 -0.287311 -0.458036 -0.281368 -0.595134 -0.458036 -0.588784 -0.432104 -0.458036 -0.281368 -0.432104 -0.275425 0.642381 0.801194 0.618749 0.771658 0.801194 0.891008 0.771658 0.858244 0.618749 0.771658 0.595116 0.743163 0.771658 0.858244 0.743163 0.826735 0.891008 0.90409 0.858244 0.870793 0.90409 0.839311 0.870793 0.808267 0.858244 0.870793 0.826735 0.838627 0.870793 0.808267 0.838627 0.778151 0.595116 0.743163 0.573294 0.715739 0.743163 0.826735 0.715739 0.796622 0.573294 0.715739 0.551471 0.689465 0.715739 0.796622 0.689465 0.767831 0.826735 0.838627 0.796622 0.808721 0.838627 0.778151 0.808721 0.748037 0.796622 0.808721 0.767831 0.78009 0.808721 0.748037 0.78009 0.728022 0.839311 0.702252 0.808267 0.676015 0.702252 0.504716 0.676015 0.485604 0.808267 0.676015 0.778151 0.650826 0.676015 0.485604 0.650826 0.466492 0.778151 0.650826 0.748037 0.625663 0.650826 0.466492 0.625663 0.452365 0.748037 0.625663 0.728022 0.58313 0.625663 0.452365 0.58313 0.438238 0.551471 0.689465 0.530864 0.664044 0.689465 0.767831 0.664044 0.740041 0.530864 0.664044 0.510258 0.639695 0.664044 0.740041 0.639695 0.712873 0.767831 0.78009 0.740041 0.752412 0.78009 0.728022 0.752412 0.700549 0.740041 0.752412 0.712873 0.725019 0.752412 0.700549 0.725019 0.673077 0.510258 0.639695 0.494694 0.61634 0.639695 0.712873 0.61634 0.684222 0.494694 0.61634 0.47913 0.576716 0.61634 0.684222 0.576716 0.674302 0.712873 0.725019 0.684222 0.698541 0.725019 0.673077 0.698541 0.652972 0.684222 0.698541 0.674302 0.653585 0.698541 0.652972 0.653585 0.632868 0.252565 0.335356 0.243961 0.336069 0.335356 0.418147 0.336069 0.401661 0.243961 0.336069 0.235358 0.328134 0.336069 0.401661 0.328134 0.385176 0.235358 0.328134 0.231655 0.320754 0.328134 0.385176 0.320754 0.384458 0.231655 0.320754 0.227952 0.305846 0.320754 0.384458 0.305846 0.38374 0.418202 0.335401 0.401744 0.336142 0.335401 0.252601 0.336142 0.244019 0.401744 0.336142 0.385286 0.328249 0.336142 0.244019 0.328249 0.235438 0.385286 0.328249 0.384701 0.320928 0.328249 0.235438 0.320928 0.231759 0.384701 0.320928 0.384115 0.306097 0.320928 0.231759 0.306097 0.22808 0.356333 0.221285 0.343957 0.220875 0.221285 0.0862361 0.220875 0.0826097 0.343957 0.220875 0.331581 0.205282 0.220875 0.0826097 0.205282 0.0789833 -0.453267 -0.499267 -0.439268 -0.497857 -0.499267 -0.545267 -0.497857 -0.514932 -0.439268 -0.497857 -0.425269 -0.468676 -0.497857 -0.514932 -0.468676 -0.512083 -0.372822 -0.411309 -0.360923 -0.409709 -0.411309 -0.449797 -0.409709 -0.423913 -0.360923 -0.409709 -0.349024 -0.38504 -0.409709 -0.423913 -0.38504 -0.421056 -0.545267 -0.499267 -0.514932 -0.497853 -0.499267 -0.453267 -0.497853 -0.439261 -0.514932 -0.497853 -0.512083 -0.468669 -0.497853 -0.439261 -0.468669 -0.425255 0.0862433 0.221294 0.0826316 0.220897 0.221294 0.356344 0.220897 0.343982 0.0826316 0.220897 0.07902 0.20532 0.220897 0.343982 0.20532 0.33162 -0.449797 -0.411271 -0.423913 -0.409667 -0.411271 -0.372745 -0.409667 -0.360845 -0.423913 -0.409667 -0.421056 -0.385001 -0.409667 -0.360845 -0.385001 -0.348945 
