# vtk DataFile Version 3.0
#This file was generated by the deal.II library on 2018/12/4 at 0:47:16
ASCII
DATASET UNSTRUCTURED_GRID

POINTS 35104 double
0.96875 0.59375 0
1 0.59375 0
0.96875 0.625 0
1 0.625 0
0.59375 0.96875 0
0.625 0.96875 0
0.59375 1 0
0.625 1 0
0.28125 0.65625 0
0.3125 0.65625 0
0.28125 0.6875 0
0.3125 0.6875 0
0.28125 0.6875 0
0.3125 0.6875 0
0.28125 0.71875 0
0.3125 0.71875 0
0.6875 0.65625 0
0.71875 0.65625 0
0.6875 0.6875 0
0.71875 0.6875 0
0.6875 0.6875 0
0.71875 0.6875 0
0.6875 0.71875 0
0.71875 0.71875 0
0.3125 0.5 0
0.34375 0.5 0
0.3125 0.53125 0
0.34375 0.53125 0
0.3125 0.53125 0
0.34375 0.53125 0
0.3125 0.5625 0
0.34375 0.5625 0
0.3125 0.5625 0
0.34375 0.5625 0
0.3125 0.59375 0
0.34375 0.59375 0
0.34375 0.5625 0
0.375 0.5625 0
0.34375 0.59375 0
0.375 0.59375 0
0.3125 0.59375 0
0.34375 0.59375 0
0.3125 0.625 0
0.34375 0.625 0
0.34375 0.59375 0
0.375 0.59375 0
0.34375 0.625 0
0.375 0.625 0
0.65625 0.5 0
0.6875 0.5 0
0.65625 0.53125 0
0.6875 0.53125 0
0.65625 0.53125 0
0.6875 0.53125 0
0.65625 0.5625 0
0.6875 0.5625 0
0.625 0.5625 0
0.65625 0.5625 0
0.625 0.59375 0
0.65625 0.59375 0
0.65625 0.5625 0
0.6875 0.5625 0
0.65625 0.59375 0
0.6875 0.59375 0
0.625 0.59375 0
0.65625 0.59375 0
0.625 0.625 0
0.65625 0.625 0
0.65625 0.59375 0
0.6875 0.59375 0
0.65625 0.625 0
0.6875 0.625 0
0.3125 0.75 0
0.34375 0.75 0
0.3125 0.78125 0
0.34375 0.78125 0
0.3125 0.78125 0
0.34375 0.78125 0
0.3125 0.8125 0
0.34375 0.8125 0
0.3125 0.8125 0
0.34375 0.8125 0
0.3125 0.84375 0
0.34375 0.84375 0
0.34375 0.8125 0
0.375 0.8125 0
0.34375 0.84375 0
0.375 0.84375 0
0.3125 0.84375 0
0.34375 0.84375 0
0.3125 0.875 0
0.34375 0.875 0
0.34375 0.84375 0
0.375 0.84375 0
0.34375 0.875 0
0.375 0.875 0
0.3125 0.875 0
0.34375 0.875 0
0.3125 0.90625 0
0.34375 0.90625 0
0.34375 0.875 0
0.375 0.875 0
0.34375 0.90625 0
0.375 0.90625 0
0.3125 0.90625 0
0.34375 0.90625 0
0.3125 0.9375 0
0.34375 0.9375 0
0.34375 0.90625 0
0.375 0.90625 0
0.34375 0.9375 0
0.375 0.9375 0
0.28125 0.9375 0
0.3125 0.9375 0
0.28125 0.96875 0
0.3125 0.96875 0
0.28125 0.96875 0
0.3125 0.96875 0
0.28125 1 0
0.3125 1 0
0.3125 0.9375 0
0.34375 0.9375 0
0.3125 0.96875 0
0.34375 0.96875 0
0.3125 0.96875 0
0.34375 0.96875 0
0.3125 1 0
0.34375 1 0
0.65625 0.75 0
0.6875 0.75 0
0.65625 0.78125 0
0.6875 0.78125 0
0.65625 0.78125 0
0.6875 0.78125 0
0.65625 0.8125 0
0.6875 0.8125 0
0.625 0.8125 0
0.65625 0.8125 0
0.625 0.84375 0
0.65625 0.84375 0
0.65625 0.8125 0
0.6875 0.8125 0
0.65625 0.84375 0
0.6875 0.84375 0
0.625 0.84375 0
0.65625 0.84375 0
0.625 0.875 0
0.65625 0.875 0
0.65625 0.84375 0
0.6875 0.84375 0
0.65625 0.875 0
0.6875 0.875 0
0.625 0.875 0
0.65625 0.875 0
0.625 0.90625 0
0.65625 0.90625 0
0.65625 0.875 0
0.6875 0.875 0
0.65625 0.90625 0
0.6875 0.90625 0
0.625 0.90625 0
0.65625 0.90625 0
0.625 0.9375 0
0.65625 0.9375 0
0.65625 0.90625 0
0.6875 0.90625 0
0.65625 0.9375 0
0.6875 0.9375 0
0.3125 0.625 0
0.34375 0.625 0
0.3125 0.65625 0
0.34375 0.65625 0
0.3125 0.65625 0
0.34375 0.65625 0
0.3125 0.6875 0
0.34375 0.6875 0
0.3125 0.6875 0
0.34375 0.6875 0
0.3125 0.71875 0
0.34375 0.71875 0
0.3125 0.71875 0
0.34375 0.71875 0
0.3125 0.75 0
0.34375 0.75 0
0.65625 0.625 0
0.6875 0.625 0
0.65625 0.65625 0
0.6875 0.65625 0
0.65625 0.65625 0
0.6875 0.65625 0
0.65625 0.6875 0
0.6875 0.6875 0
0.65625 0.6875 0
0.6875 0.6875 0
0.65625 0.71875 0
0.6875 0.71875 0
0.65625 0.71875 0
0.6875 0.71875 0
0.65625 0.75 0
0.6875 0.75 0
0.65625 0.9375 0
0.6875 0.9375 0
0.65625 0.96875 0
0.6875 0.96875 0
0.65625 0.96875 0
0.6875 0.96875 0
0.65625 1 0
0.6875 1 0
0.6875 0.9375 0
0.71875 0.9375 0
0.6875 0.96875 0
0.71875 0.96875 0
0.6875 0.96875 0
0.71875 0.96875 0
0.6875 1 0
0.71875 1 0
0 0.875 0
0.03125 0.875 0
0 0.90625 0
0.03125 0.90625 0
0 0.90625 0
0.03125 0.90625 0
0 0.9375 0
0.03125 0.9375 0
0 0.9375 0
0.03125 0.9375 0
0 0.96875 0
0.03125 0.96875 0
0.96875 0.875 0
1 0.875 0
0.96875 0.90625 0
1 0.90625 0
0.96875 0.90625 0
1 0.90625 0
0.96875 0.9375 0
1 0.9375 0
0.96875 0.9375 0
1 0.9375 0
0.96875 0.96875 0
1 0.96875 0
0.0625 0.15625 0
0.078125 0.15625 0
0.0625 0.171875 0
0.078125 0.171875 0
0.0625 0.171875 0
0.078125 0.171875 0
0.0625 0.1875 0
0.078125 0.1875 0
0.0625 0 0
0.078125 0 0
0.0625 0.015625 0
0.078125 0.015625 0
0.078125 0 0
0.09375 0 0
0.078125 0.015625 0
0.09375 0.015625 0
0.0625 0.015625 0
0.078125 0.015625 0
0.0625 0.03125 0
0.078125 0.03125 0
0.078125 0.015625 0
0.09375 0.015625 0
0.078125 0.03125 0
0.09375 0.03125 0
0.09375 0 0
0.109375 0 0
0.09375 0.015625 0
0.109375 0.015625 0
0.09375 0.015625 0
0.109375 0.015625 0
0.09375 0.03125 0
0.109375 0.03125 0
0.0625 0.03125 0
0.078125 0.03125 0
0.0625 0.046875 0
0.078125 0.046875 0
0.078125 0.03125 0
0.09375 0.03125 0
0.078125 0.046875 0
0.09375 0.046875 0
0.0625 0.046875 0
0.078125 0.046875 0
0.0625 0.0625 0
0.078125 0.0625 0
0.078125 0.046875 0
0.09375 0.046875 0
0.078125 0.0625 0
0.09375 0.0625 0
0.09375 0.03125 0
0.109375 0.03125 0
0.09375 0.046875 0
0.109375 0.046875 0
0.09375 0.046875 0
0.109375 0.046875 0
0.09375 0.0625 0
0.109375 0.0625 0
0.109375 0.046875 0
0.125 0.046875 0
0.109375 0.0625 0
0.125 0.0625 0
0.921875 0.15625 0
0.9375 0.15625 0
0.921875 0.171875 0
0.9375 0.171875 0
0.921875 0.171875 0
0.9375 0.171875 0
0.921875 0.1875 0
0.9375 0.1875 0
0.0625 0.0625 0
0.078125 0.0625 0
0.0625 0.078125 0
0.078125 0.078125 0
0.078125 0.0625 0
0.09375 0.0625 0
0.078125 0.078125 0
0.09375 0.078125 0
0.0625 0.078125 0
0.078125 0.078125 0
0.0625 0.09375 0
0.078125 0.09375 0
0.078125 0.078125 0
0.09375 0.078125 0
0.078125 0.09375 0
0.09375 0.09375 0
0.09375 0.0625 0
0.109375 0.0625 0
0.09375 0.078125 0
0.109375 0.078125 0
0.109375 0.0625 0
0.125 0.0625 0
0.109375 0.078125 0
0.125 0.078125 0
0.09375 0.078125 0
0.109375 0.078125 0
0.09375 0.09375 0
0.109375 0.09375 0
0.109375 0.078125 0
0.125 0.078125 0
0.109375 0.09375 0
0.125 0.09375 0
0.453125 0.328125 0
0.46875 0.328125 0
0.453125 0.34375 0
0.46875 0.34375 0
0.46875 0.328125 0
0.484375 0.328125 0
0.46875 0.34375 0
0.484375 0.34375 0
0.484375 0.328125 0
0.5 0.328125 0
0.484375 0.34375 0
0.5 0.34375 0
0.453125 0.34375 0
0.46875 0.34375 0
0.453125 0.359375 0
0.46875 0.359375 0
0.453125 0.359375 0
0.46875 0.359375 0
0.453125 0.375 0
0.46875 0.375 0
0.46875 0.34375 0
0.484375 0.34375 0
0.46875 0.359375 0
0.484375 0.359375 0
0.484375 0.34375 0
0.5 0.34375 0
0.484375 0.359375 0
0.5 0.359375 0
0.078125 0.25 0
0.09375 0.25 0
0.078125 0.265625 0
0.09375 0.265625 0
0.078125 0.265625 0
0.09375 0.265625 0
0.078125 0.28125 0
0.09375 0.28125 0
0.0625 0.09375 0
0.078125 0.09375 0
0.0625 0.109375 0
0.078125 0.109375 0
0.078125 0.09375 0
0.09375 0.09375 0
0.078125 0.109375 0
0.09375 0.109375 0
0.0625 0.109375 0
0.078125 0.109375 0
0.0625 0.125 0
0.078125 0.125 0
0.078125 0.109375 0
0.09375 0.109375 0
0.078125 0.125 0
0.09375 0.125 0
0.21875 0.109375 0
0.234375 0.109375 0
0.21875 0.125 0
0.234375 0.125 0
0.09375 0.09375 0
0.109375 0.09375 0
0.09375 0.109375 0
0.109375 0.109375 0
0.109375 0.09375 0
0.125 0.09375 0
0.109375 0.109375 0
0.125 0.109375 0
0.09375 0.109375 0
0.109375 0.109375 0
0.09375 0.125 0
0.109375 0.125 0
0.109375 0.109375 0
0.125 0.109375 0
0.109375 0.125 0
0.125 0.125 0
0.125 0.03125 0
0.140625 0.03125 0
0.125 0.046875 0
0.140625 0.046875 0
0.125 0.046875 0
0.140625 0.046875 0
0.125 0.0625 0
0.140625 0.0625 0
0.90625 0.25 0
0.921875 0.25 0
0.90625 0.265625 0
0.921875 0.265625 0
0.90625 0.265625 0
0.921875 0.265625 0
0.90625 0.28125 0
0.921875 0.28125 0
0.203125 0 0
0.21875 0 0
0.203125 0.015625 0
0.21875 0.015625 0
0.203125 0.015625 0
0.21875 0.015625 0
0.203125 0.03125 0
0.21875 0.03125 0
0.21875 0 0
0.234375 0 0
0.21875 0.015625 0
0.234375 0.015625 0
0.234375 0 0
0.25 0 0
0.234375 0.015625 0
0.25 0.015625 0
0.21875 0.015625 0
0.234375 0.015625 0
0.21875 0.03125 0
0.234375 0.03125 0
0.234375 0.015625 0
0.25 0.015625 0
0.234375 0.03125 0
0.25 0.03125 0
0.203125 0.03125 0
0.21875 0.03125 0
0.203125 0.046875 0
0.21875 0.046875 0
0.203125 0.046875 0
0.21875 0.046875 0
0.203125 0.0625 0
0.21875 0.0625 0
0.21875 0.03125 0
0.234375 0.03125 0
0.21875 0.046875 0
0.234375 0.046875 0
0.234375 0.03125 0
0.25 0.03125 0
0.234375 0.046875 0
0.25 0.046875 0
0.21875 0.046875 0
0.234375 0.046875 0
0.21875 0.0625 0
0.234375 0.0625 0
0.234375 0.046875 0
0.25 0.046875 0
0.234375 0.0625 0
0.25 0.0625 0
0.125 0.0625 0
0.140625 0.0625 0
0.125 0.078125 0
0.140625 0.078125 0
0.125 0.078125 0
0.140625 0.078125 0
0.125 0.09375 0
0.140625 0.09375 0
0.140625 0.078125 0
0.15625 0.078125 0
0.140625 0.09375 0
0.15625 0.09375 0
0.15625 0.0625 0
0.171875 0.0625 0
0.15625 0.078125 0
0.171875 0.078125 0
0.5 0.328125 0
0.515625 0.328125 0
0.5 0.34375 0
0.515625 0.34375 0
0.515625 0.328125 0
0.53125 0.328125 0
0.515625 0.34375 0
0.53125 0.34375 0
0.53125 0.328125 0
0.546875 0.328125 0
0.53125 0.34375 0
0.546875 0.34375 0
0.5 0.34375 0
0.515625 0.34375 0
0.5 0.359375 0
0.515625 0.359375 0
0.515625 0.34375 0
0.53125 0.34375 0
0.515625 0.359375 0
0.53125 0.359375 0
0.53125 0.34375 0
0.546875 0.34375 0
0.53125 0.359375 0
0.546875 0.359375 0
0.53125 0.359375 0
0.546875 0.359375 0
0.53125 0.375 0
0.546875 0.375 0
0.0625 0.125 0
0.078125 0.125 0
0.0625 0.140625 0
0.078125 0.140625 0
0.078125 0.125 0
0.09375 0.125 0
0.078125 0.140625 0
0.09375 0.140625 0
0.0625 0.140625 0
0.078125 0.140625 0
0.0625 0.15625 0
0.078125 0.15625 0
0.078125 0.140625 0
0.09375 0.140625 0
0.078125 0.15625 0
0.09375 0.15625 0
0.09375 0.125 0
0.109375 0.125 0
0.09375 0.140625 0
0.109375 0.140625 0
0.109375 0.125 0
0.125 0.125 0
0.109375 0.140625 0
0.125 0.140625 0
0.09375 0.140625 0
0.109375 0.140625 0
0.09375 0.15625 0
0.109375 0.15625 0
0.109375 0.140625 0
0.125 0.140625 0
0.109375 0.15625 0
0.125 0.15625 0
0.09375 0.15625 0
0.109375 0.15625 0
0.09375 0.171875 0
0.109375 0.171875 0
0.109375 0.15625 0
0.125 0.15625 0
0.109375 0.171875 0
0.125 0.171875 0
0.09375 0.171875 0
0.109375 0.171875 0
0.09375 0.1875 0
0.109375 0.1875 0
0.109375 0.171875 0
0.125 0.171875 0
0.109375 0.1875 0
0.125 0.1875 0
0 0.125 0
0.015625 0.125 0
0 0.140625 0
[...]
POINT_DATA 35104
SCALARS U double 1
LOOKUP_TABLE default
0.127911 1.62826e-16 0.123966 1.57817e-16 -0.193875 -0.117189 -0.187292 -0.11298 0.192044 0.0768806 0.186108 0.0746188 0.186108 0.0746188 0.180647 0.0725022 0.0768687 0.192033 0.0746025 0.186093 0.0746025 0.186093 0.0724815 0.180626 0.0899136 -0.0527614 0.0869324 -0.0512327 0.0869324 -0.0512327 0.0841384 -0.0499964 0.0841384 -0.0499964 0.0814837 -0.0484643 -0.0499964 -0.180186 -0.0484643 -0.174544 0.0814837 -0.0484643 0.0789159 -0.0469373 -0.0484643 -0.174544 -0.0469373 -0.169228 -0.0527568 0.0899165 -0.0512323 0.0869305 -0.0512323 0.0869305 -0.0499991 0.0841343 -0.180187 -0.0499991 -0.174549 -0.0484699 -0.0499991 0.0841343 -0.0484699 0.0814781 -0.174549 -0.0484699 -0.169235 -0.0469458 -0.0484699 0.0814781 -0.0469458 0.0789077 0.0701844 -0.0407313 0.0683324 -0.039201 0.0683324 -0.039201 0.0665208 -0.0378744 0.0665208 -0.0378744 0.0647883 -0.0363316 -0.0378744 -0.139215 -0.0363316 -0.134498 0.0647883 -0.0363316 0.0631678 -0.0348273 -0.0363316 -0.134498 -0.0348273 -0.129968 0.0631678 -0.0348273 0.0615662 -0.0333309 -0.0348273 -0.129968 -0.0333309 -0.12556 0.0615662 -0.0333309 0.0603605 -0.0318777 -0.0333309 -0.12556 -0.0318777 -0.12134 0.147239 0.0603605 0.143081 0.0589396 0.143081 0.0589396 0.139171 0.0575965 0.0603605 -0.0318777 0.0589396 -0.0302645 0.0589396 -0.0302645 0.0575965 -0.0289376 -0.0407537 0.0701596 -0.039225 0.0683047 -0.039225 0.0683047 -0.0378969 0.0664925 -0.139233 -0.0378969 -0.134508 -0.0363473 -0.0378969 0.0664925 -0.0363473 0.0647642 -0.134508 -0.0363473 -0.129961 -0.034828 -0.0363473 0.0647642 -0.034828 0.0631557 -0.129961 -0.034828 -0.125519 -0.0333071 -0.034828 0.0631557 -0.0333071 0.0615706 -0.125519 -0.0333071 -0.121215 -0.0318417 -0.0333071 0.0615706 -0.0318417 0.0603697 0.0789159 -0.0469373 0.0768806 -0.045162 0.0768806 -0.045162 0.0746188 -0.0436741 0.0746188 -0.0436741 0.0725022 -0.0422074 0.0725022 -0.0422074 0.0701844 -0.0407313 -0.0469458 0.0789077 -0.0451739 0.0768687 -0.0451739 0.0768687 -0.0436897 0.0746025 -0.0436897 0.0746025 -0.0422267 0.0724815 -0.0422267 0.0724815 -0.0407537 0.0701596 -0.0318417 0.0603697 -0.0302589 0.0589455 -0.0302589 0.0589455 -0.0289376 0.0575965 0.0603697 0.147251 0.0589455 0.143075 0.0589455 0.143075 0.0575965 0.139171 0 0.0967865 0 0.0937984 0 0.0937984 0 0.0910191 0 0.0910191 0 0.0883847 0.0967841 1.22908e-16 0.0937962 1.19126e-16 0.0937962 1.19126e-16 0.0910176 1.15461e-16 0.0910176 1.15461e-16 0.0883839 1.11909e-16 0.380552 0.460111 0.374517 0.452648 0.374517 0.452648 0.368842 0.445757 0.445856 0.538939 0.438871 0.530493 0.538939 0.620355 0.530493 0.610606 0.438871 0.530493 0.431997 0.522186 0.530493 0.610606 0.522186 0.601069 0.620355 0.688343 0.610606 0.677474 0.610606 0.677474 0.601069 0.666778 0.431997 0.522186 0.425228 0.514014 0.522186 0.601069 0.514014 0.59168 0.425228 0.514014 0.418558 0.505953 0.514014 0.59168 0.505953 0.582427 0.601069 0.666778 0.59168 0.656724 0.59168 0.656724 0.582427 0.646297 0.656724 0.707351 0.646297 0.696142 0.460114 0.380555 0.452652 0.37452 0.452652 0.37452 0.445761 0.368846 0.418558 0.505953 0.411982 0.498 0.505953 0.582427 0.498 0.573244 0.411982 0.498 0.405502 0.490155 0.498 0.573244 0.490155 0.564194 0.582427 0.646297 0.573244 0.636099 0.646297 0.696142 0.636099 0.685209 0.573244 0.636099 0.564194 0.626011 0.636099 0.685209 0.626011 0.674418 -0.526747 -0.557491 -0.518714 -0.548955 -0.557491 -0.576136 -0.548955 -0.567373 -0.576136 -0.582399 -0.567373 -0.573565 -0.518714 -0.548955 -0.510782 -0.540565 -0.510782 -0.540565 -0.503342 -0.5324 -0.548955 -0.567373 -0.540565 -0.558841 -0.567373 -0.573565 -0.558841 -0.56487 0.418533 0.481651 0.411838 0.474057 0.411838 0.474057 0.405492 0.466633 0.405502 0.490155 0.39912 0.482432 0.490155 0.564194 0.482432 0.555283 0.39912 0.482432 0.39284 0.474839 0.482432 0.555283 0.474839 0.546531 0.63292 0.576235 0.622777 0.567005 0.564194 0.626011 0.555283 0.616086 0.626011 0.674418 0.616086 0.663342 0.555283 0.616086 0.546531 0.606338 0.616086 0.663342 0.606338 0.652986 0.718469 0.75445 0.707351 0.742413 0.707351 0.742413 0.696142 0.73071 0.481658 0.418539 0.474065 0.411844 0.474065 0.411844 0.466641 0.405499 0.755607 0.707758 0.743702 0.696601 0.743702 0.696601 0.731993 0.685626 0.707758 0.644589 0.696601 0.634407 0.644589 0.567466 0.634407 0.558471 0.696601 0.634407 0.685626 0.624388 0.634407 0.558471 0.624388 0.549617 0.731993 0.685626 0.720477 0.674859 0.720477 0.674859 0.709194 0.66435 0.685626 0.624388 0.674859 0.614547 0.624388 0.549617 0.614547 0.540877 0.674859 0.614547 0.66435 0.60495 0.614547 0.540877 0.60495 0.532231 0.696142 0.73071 0.685209 0.719629 0.685209 0.719629 0.674418 0.708364 0.719629 0.738359 0.708364 0.726249 0.749871 0.752623 0.738359 0.740758 -0.582399 -0.576132 -0.573565 -0.56737 -0.576132 -0.557483 -0.56737 -0.54895 -0.557483 -0.526735 -0.54895 -0.518709 -0.573565 -0.56737 -0.56487 -0.558839 -0.56737 -0.54895 -0.558839 -0.540562 -0.54895 -0.518709 -0.540562 -0.51078 -0.540562 -0.51078 -0.532397 -0.503338 0.39284 0.474839 0.386665 0.467386 0.474839 0.546531 0.467386 0.537948 0.386665 0.467386 0.380552 0.460111 0.467386 0.537948 0.460111 0.52957 0.546531 0.606338 0.537948 0.596818 0.606338 0.652986 0.596818 0.642742 0.537948 0.596818 0.52957 0.587418 0.596818 0.642742 0.587418 0.632653 0.52957 0.587418 0.520993 0.578162 0.587418 0.632653 0.578162 0.622695 0.520993 0.578162 0.512892 0.569038 0.578162 0.622695 0.569038 0.612868 0 0.103752 0 0.102116 0.103752 0.205259 0.102116 0.202023 0 0.102116 0 0.100503 0.102116 0.202023 0.100503 0.198831 0.694661 0.682204 0.683923 0.671288 0.68162 0.683923 0.670671 0.673021 0.683923 0.671288 0.673021 0.660697 0.670671 0.673021 0.660042 0.662353 0.673021 0.660697 0.662353 0.650293 0.512892 0.569038 0.504838 0.560136 0.569038 0.612868 0.560136 0.603125 0.504838 0.560136 0.496931 0.551377 0.560136 0.603125 0.551377 0.594001 0.496931 0.551377 0.489077 0.542791 0.551377 0.594001 0.542791 0.584657 0.489077 0.542791 0.481651 0.534291 0.542791 0.584657 0.534291 0.575437 0.660042 0.662353 0.649522 0.651929 0.662353 0.650293 0.651929 0.640043 0.649522 0.651929 0.639651 0.64167 0.651929 0.640043 0.64167 0.629918 0.594001 0.623881 0.584657 0.613795 0.623881 0.639651 0.613795 0.629561 0.584657 0.613795 0.575437 0.604088 0.613795 0.629561 0.604088 0.619613 0.639651 0.64167 0.629561 0.631614 0.64167 0.629918 0.631614 0.619838 0.629561 0.631614 0.619613 0.621675 0.631614 0.619838 0.621675 0.610347 -0.435721 -0.473425 -0.4291 -0.465883 -0.4291 -0.465883 -0.422564 -0.459127 -0.422564 -0.459127 -0.416107 -0.452119 -0.459127 -0.485759 -0.452119 -0.478337 -0.416107 -0.452119 -0.409937 -0.445317 -0.452119 -0.478337 -0.445317 -0.471072 0.622777 0.567005 0.612899 0.558004 0.612899 0.558004 0.603158 0.549067 0.603158 0.549067 0.593507 0.540235 0.593507 0.540235 0.584445 0.531953 0.567466 0.47806 0.558471 0.470435 0.47806 0.378305 0.470435 0.372206 0.558471 0.470435 0.549617 0.462936 0.470435 0.372206 0.462936 0.366204 0.549617 0.462936 0.540877 0.455569 0.462936 0.366204 0.455569 0.360372 0.540877 0.455569 0.532231 0.448024 0.624299 0.584445 0.614265 0.57515 0.614265 0.57515 0.604525 0.566006 0.584445 0.531953 0.57515 0.523517 0.531953 0.46812 0.523517 0.460486 0.57515 0.523517 0.566006 0.515167 0.523517 0.460486 0.515167 0.453096 0.604525 0.566006 0.594939 0.557152 0.566006 0.515167 0.557152 0.506892 0.515167 0.453096 0.506892 0.445853 0.506892 0.445853 0.498806 0.438766 0.25726 0.148723 0.253084 0.146142 -0.509113 -0.594627 -0.501447 -0.585638 -0.501447 -0.585638 -0.4939 -0.5768 0.532231 0.448024 0.523374 0.440874 0.523374 0.440874 0.515202 0.433843 -0.4939 -0.5768 -0.486449 -0.568086 -0.486449 -0.568086 -0.479144 -0.559355 0 0.100503 0 0.0989335 0.100503 0.198831 0.0989335 0.195662 0 0.0989335 0 0.0973925 0.0989335 0.195662 0.0973925 0.192721 -0.479144 -0.559355 -0.471945 -0.551134 -0.471945 -0.551134 -0.464871 -0.542716 -0.551134 -0.618304 -0.542716 -0.608789 -0.464871 -0.542716 -0.457885 -0.534488 -0.542716 -0.608789 -0.534488 -0.599552 -0.457885 -0.534488 -0.451028 -0.526462 -0.534488 -0.599552 -0.526462 -0.590382 -0.66727 -0.725468 -0.657138 -0.714405 -0.657138 -0.714405 -0.647239 -0.703497 -0.473419 -0.435713 -0.465878 -0.429093 -0.465878 -0.429093 -0.459122 -0.422558 -0.485756 -0.459122 -0.478334 -0.452115 -0.459122 -0.422558 -0.452115 -0.416102 -0.478334 -0.452115 -0.47107 -0.445314 -0.452115 -0.416102 -0.445314 -0.409933 -0.647239 -0.703497 -0.637502 -0.693326 -0.637502 -0.693326 -0.627914 -0.682961 -0.693326 -0.734279 -0.682961 -0.723024 -0.734279 -0.759002 -0.723024 -0.747421 -0.759002 -0.767314 -0.747421 -0.7556 -0.399967 -0.466563 -0.394032 -0.459628 -0.466563 -0.523239 -0.459628 -0.515384 -0.394032 -0.459628 -0.388171 -0.452752 -0.459628 -0.515384 -0.452752 -0.507627 -0.388171 -0.452752 -0.382377 -0.445964 -0.452752 -0.507627 -0.445964 -0.499993 -0.382377 -0.445964 -0.376661 -0.439259 -0.445964 -0.499993 -0.439259 -0.492474 -0.523239 -0.568732 -0.515384 -0.560067 -0.568732 -0.601828 -0.560067 -0.592701 -0.515384 -0.560067 -0.507627 -0.551597 -0.560067 -0.592701 -0.551597 -0.5837 -0.601828 -0.622064 -0.592701 -0.612563 -0.622064 -0.628844 -0.612563 -0.619235 -0.592701 -0.612563 -0.5837 -0.603242 -0.612563 -0.619235 -0.603242 -0.6098 -0.507627 -0.551597 -0.499993 -0.543269 -0.551597 -0.5837 -0.543269 -0.574856 -0.499993 -0.543269 -0.492474 -0.535145 -0.543269 -0.574856 -0.535145 -0.566126 -0.5837 -0.603242 -0.574856 -0.594071 -0.603242 -0.6098 -0.594071 -0.600523 -0.574856 -0.594071 -0.566126 -0.585039 -0.594071 -0.600523 -0.585039 -0.591392 0.411012 0.456085 0.404568 0.448594 0.404568 0.448594 0.398229 0.4419 0.398229 0.4419 0.39204 0.434953 0.4419 0.475861 0.434953 0.468371 0.39204 0.434953 0.385917 0.428272 0.434953 0.468371 0.428272 0.461023 -0.376661 -0.439259 -0.371031 -0.43278 -0.439259 -0.492474 -0.43278 -0.484835 -0.0767094 -0.189509 -0.075748 -0.186683 -0.075748 -0.186683 -0.0748049 -0.184073 0.378305 0.47806 0.372208 0.470436 0.47806 0.567466 0.470436 0.558472 0.372208 0.470436 0.366207 0.462939 0.470436 0.558472 0.462939 0.549619 0.451912 0.501348 0.444838 0.493501 0.444838 0.493501 0.437902 0.48598 0.493501 0.531642 0.48598 0.523181 0.148727 0.257264 0.146148 0.25309 0.366207 0.462939 0.360376 0.455573 0.462939 0.549619 0.455573 0.54088 0.455573 0.54088 0.44803 0.532236 0.44803 0.532236 0.44088 0.523381 0.44088 0.523381 0.433851 0.51521 0 0.117754 0 0.115909 0.117754 0.232959 0.115909 0.229309 0 0.115909 0 0.114093 0.115909 0.229309 0.114093 0.225717 0.531642 0.558 0.523181 0.549156 0.558 0.572308 0.549156 0.563279 0.572308 0.574192 0.563279 0.565151 0.574192 0.56363 0.565151 0.554659 0.523181 0.549156 0.514575 0.540414 0.549156 0.563279 0.540414 0.554484 0.514575 0.540414 0.506857 0.531919 0.563279 0.565151 0.554484 0.556249 0.565151 0.554659 0.556249 0.545998 0.549249 0.514216 0.540552 0.505712 0.56363 0.540552 0.554659 0.532094 0.540552 0.505712 0.532094 0.498055 0.554659 0.532094 0.545998 0.523657 0.532094 0.498055 0.523657 0.490176 0.523657 0.490176 0.515394 0.482406 0.498055 0.453341 0.490176 0.445965 0.453341 0.398372 0.445965 0.392076 0.490176 0.445965 0.482406 0.438864 0.445965 0.392076 0.438864 0.385632 0.438864 0.385632 0.43192 0.379578 0.474805 0.43192 0.467324 0.425253 0.43192 0.379578 0.425253 0.37359 0.652991 0.606342 0.642747 0.596823 0.606342 0.546535 0.596823 0.537952 0.642747 0.596823 0.632659 0.587423 0.596823 0.537952 0.587423 0.529574 0.546535 0.474842 0.537952 0.467389 0.474842 0.392842 0.467389 0.386667 0.537952 0.467389 0.529574 0.460114 0.467389 0.386667 0.460114 0.380555 0.468638 0.438408 0.460953 0.431522 0.460953 0.431522 0.454072 0.424738 0.632659 0.587423 0.622701 0.578168 0.587423 0.529574 0.578168 0.520997 0.622701 0.578168 0.612875 0.569044 0.578168 0.520997 0.569044 0.512897 0.385649 0.438881 0.379595 0.431938 0.379595 0.431938 0.373608 0.425272 0.431938 0.474823 0.425272 0.467343 0.612875 0.569044 0.603133 0.560143 0.569044 0.512897 0.560143 0.504844 0.603133 0.560143 0.594008 0.551384 0.560143 0.504844 0.551384 0.496937 0.594008 0.551384 0.584666 0.542798 0.551384 0.496937 0.542798 0.489083 0.584666 0.542798 0.575445 0.534299 0.542798 0.489083 0.534299 0.481658 0.438479 0.468618 0.431611 0.461304 0.431611 0.461304 0.424864 0.454237 0.461304 0.48091 0.454237 0.47339 -0.725468 -0.66727 -0.714406 -0.657138 -0.714406 -0.657138 -0.703497 -0.64724 -0.451028 -0.526462 -0.444296 -0.518575 -0.526462 -0.590382 -0.518575 -0.581797 -0.444296 -0.518575 -0.437663 -0.510818 -0.518575 -0.581797 -0.510818 -0.572979 -0.767314 -0.759002 -0.7556 -0.747422 -0.759002 -0.734279 -0.747422 -0.723025 -0.437663 -0.510818 -0.43112 -0.503099 -0.510818 -0.572979 -0.503099 -0.56436 -0.43112 -0.503099 -0.424667 -0.495507 -0.503099 -0.56436 -0.495507 -0.555522 -0.703497 -0.64724 -0.693327 -0.637503 -0.734279 -0.693327 -0.723025 -0.682963 -0.693327 -0.637503 -0.682963 -0.627916 0.456097 0.411024 0.448604 0.404579 0.448604 0.404579 0.441902 0.398236 -0.628844 -0.622063 -0.619235 -0.612557 -0.622063 -0.601819 -0.612557 -0.592683 -0.619235 -0.612557 -0.6098 -0.603235 -0.612557 -0.592683 -0.603235 -0.583685 -0.581797 -0.632417 -0.572979 -0.622707 -0.572979 -0.622707 -0.56436 -0.613412 0.475867 0.441902 0.468362 0.434931 0.441902 0.398236 0.434931 0.392037 0.468362 0.434931 0.461021 0.428114 0.434931 0.392037 0.428114 0.385895 -0.601819 -0.568672 -0.592683 -0.560035 -0.568672 -0.523139 -0.560035 -0.515361 -0.592683 -0.560035 -0.583685 -0.551578 -0.560035 -0.515361 -0.551578 -0.507619 0.461021 0.428114 0.45381 0.421418 0.428114 0.385895 0.421418 0.379859 0.45381 0.421418 0.446723 0.414844 0.421418 0.379859 0.414844 0.373929 -0.6098 -0.603235 -0.600523 -0.594065 -0.603235 -0.583685 -0.594065 -0.574844 -0.600523 -0.594065 -0.591392 -0.585034 -0.594065 -0.574844 -0.585034 -0.566115 -0.586007 -0.620112 -0.577115 -0.610683 -0.583685 -0.551578 -0.574844 -0.543251 -0.551578 -0.507619 -0.543251 -0.49997 -0.574844 -0.543251 -0.566115 -0.535128 -0.543251 -0.49997 -0.535128 -0.492437 0.514231 0.549264 0.505727 0.540567 0.505727 0.540567 0.498071 0.532109 0.540567 0.563644 0.532109 0.554674 0.398388 0.453357 0.392092 0.445982 0.453357 0.498071 0.445982 0.490192 0.392092 0.445982 0.385649 0.438881 0.445982 0.490192 0.438881 0.482423 0.498071 0.532109 0.490192 0.523673 0.532109 0.554674 0.523673 0.546014 0.490192 0.523673 0.482423 0.515411 0.44675 0.468847 0.439779 0.461602 0.439779 0.461602 0.432873 0.454516 0.461602 0.473386 0.454516 0.466077 -0.523139 -0.466602 -0.515361 -0.459622 -0.466602 -0.399999 -0.459622 -0.394037 -0.515361 -0.459622 -0.507619 -0.45276 -0.459622 -0.394037 -0.45276 -0.388164 -0.507619 -0.45276 -0.49997 -0.446018 -0.45276 -0.388164 -0.446018 -0.382448 -0.49997 -0.446018 -0.492437 -0.439113 0.473406 0.454072 0.465987 0.44693 0.454072 0.424738 0.44693 0.4181 0.465987 0.44693 0.458742 0.439989 0.44693 0.4181 0.439989 0.411542 -0.492437 -0.439113 -0.484817 -0.432672 0 0.114093 0 0.112304 0.114093 0.225717 0.112304 0.222178 0 0.112304 0 0.110543 0.112304 0.222178 0.110543 0.218693 0.481651 0.534291 0.474057 0.525918 0.534291 0.575437 0.525918 0.566376 0.474057 0.525918 0.466633 0.517616 0.525918 0.566376 0.517616 0.557458 0.466633 0.517616 0.459058 0.509451 0.517616 0.557458 0.509451 0.54868 0.459058 0.509451 0.451912 0.501348 0.509451 0.54868 0.501348 0.540125 0.563644 0.574207 0.554674 0.565166 0.574207 0.572321 0.565166 0.563293 0.572321 0.558013 0.563293 0.549169 0.558013 0.531654 0.549169 0.523194 0.554674 0.565166 0.546014 0.556264 0.565166 0.563293 0.556264 0.554498 0.563293 0.549169 0.554498 0.540428 0.549169 0.523194 0.540428 0.514588 0.540428 0.514588 0.531933 0.50687 0.575437 0.604088 0.566376 0.594563 0.604088 0.619613 0.594563 0.609844 0.566376 0.594563 0.557458 0.585199 0.594563 0.609844 0.585199 0.600236 0.619613 0.621675 0.609844 0.611896 0.621675 0.610347 0.611896 0.600677 0.609844 0.611896 0.600236 0.602237 0.611896 0.600677 0.602237 0.591156 0.501359 0.451922 0.493512 0.444848 0.531654 0.493512 0.523194 0.485992 0.493512 0.444848 0.485992 0.437913 0.557458 0.585199 0.54868 0.575995 0.585199 0.600236 0.575995 0.59078 0.54868 0.575995 0.540125 0.566934 0.575995 0.59078 0.566934 0.581476 0.600236 0.602237 0.59078 0.59274 0.602237 0.591156 0.59274 0.581796 0.59078 0.59274 0.581476 0.583394 0.59274 0.581796 0.583394 0.572677 0.610347 0.585817 0.600677 0.576394 0.585817 0.548329 0.576394 0.539537 0.600677 0.576394 0.591156 0.567223 0.576394 0.539537 0.567223 0.530946 0.548329 0.498806 0.539537 0.490925 0.498806 0.438766 0.490925 0.431547 0.539537 0.490925 0.530946 0.483089 0.490925 0.431547 0.483089 0.424727 0.591156 0.567223 0.581796 0.558219 0.567223 0.530946 0.558219 0.522518 0.581796 0.558219 0.572677 0.549249 0.558219 0.522518 0.549249 0.514216 -0.594627 -0.509113 -0.585638 -0.501448 -0.585638 -0.501448 -0.5768 -0.4939 0.530946 0.483089 0.522518 0.475446 0.483089 0.424727 0.475446 0.417905 0.522518 0.475446 0.514216 0.468066 0.475446 0.417905 0.468066 0.411425 -0.5768 -0.4939 -0.568088 -0.48645 -0.568088 -0.48645 -0.559357 -0.479145 0.567466 0.644589 0.558472 0.634408 0.644589 0.707758 0.634408 0.696602 0.558472 0.634408 0.549619 0.624391 0.634408 0.696602 0.624391 0.685628 -0.559357 -0.479145 -0.551138 -0.471948 -0.618308 -0.551138 -0.608795 -0.542724 -0.551138 -0.471948 -0.542724 -0.464878 0.707758 0.755607 0.696602 0.743703 0.696602 0.743703 0.685628 0.731995 -0.608795 -0.542724 -0.599563 -0.534503 -0.542724 -0.464878 -0.534503 -0.457898 -0.599563 -0.534503 -0.590401 -0.526491 -0.534503 -0.457898 -0.526491 -0.451052 0.549619 0.624391 0.54088 0.61455 0.624391 0.685628 0.61455 0.674862 0.54088 0.61455 0.532236 0.604955 0.61455 0.674862 0.604955 0.664354 -0.632404 -0.581833 -0.622622 -0.572991 -0.622622 -0.572991 -0.613125 -0.563988 -0.613125 -0.563988 -0.603783 -0.555529 -0.590401 -0.526491 -0.581833 -0.51864 -0.526491 -0.451052 -0.51864 -0.444347 -0.581833 -0.51864 -0.572991 -0.511067 -0.51864 -0.444347 -0.511067 -0.437764 0.685628 0.731995 0.674862 0.72048 0.674862 0.72048 0.664354 0.709198 0.754451 0.71847 0.742415 0.707353 0.742415 0.707353 0.730712 0.696144 -0.603783 -0.555529 -0.594602 -0.547136 -0.594602 -0.547136 -0.586016 -0.53926 -0.620181 -0.586016 -0.610688 -0.577332 -0.586016 -0.53926 -0.577332 -0.531125 0.205261 0.103753 0.202024 0.102117 0.103753 2.60196e-16 0.102117 2.56162e-16 0.202024 0.102117 0.198832 0.100504 0.102117 2.56162e-16 0.100504 2.52191e-16 -0.53926 -0.481091 -0.531125 -0.473717 -0.481091 -0.41224 -0.473717 -0.406064 -0.531125 -0.473717 -0.523139 -0.466602 -0.473717 -0.406064 -0.466602 -0.399999 0.576244 0.632928 0.567015 0.622786 0.567015 0.622786 0.558015 0.612908 0.558015 0.612908 0.549079 0.603169 0.549079 0.603169 0.540247 0.593518 0.540247 0.593518 0.531967 0.584458 0.468135 0.531967 0.460501 0.523531 0.531967 0.584458 0.523531 0.575163 0.460501 0.523531 0.453112 0.515182 0.523531 0.575163 0.515182 0.56602 0.584458 0.62431 0.575163 0.614277 0.575163 0.614277 0.56602 0.604537 0.453112 0.515182 0.445869 0.506906 0.515182 0.56602 0.506906 0.557165 0.445869 0.506906 0.438781 0.49882 0.56602 0.604537 0.557165 0.594951 0.752626 0.749874 0.740762 0.738362 0.730712 0.696144 0.719633 0.685212 0.738362 0.719633 0.726254 0.708368 0.719633 0.685212 0.708368 0.674422 0.688343 0.620355 0.677475 0.610607 0.677475 0.610607 0.666779 0.60107 0.468888 0.446723 0.461588 0.439728 0.473368 0.461588 0.466043 0.454495 0.461588 0.439728 0.454495 0.432855 0.620355 0.538939 0.610607 0.530493 0.538939 0.445856 0.530493 0.438871 0.610607 0.530493 0.60107 0.522187 0.530493 0.438871 0.522187 0.431998 0.666779 0.60107 0.656725 0.591682 0.707353 0.656725 0.696144 0.646299 0.656725 0.591682 0.646299 0.582428 0.60107 0.522187 0.591682 0.514015 0.522187 0.431998 0.514015 0.425229 0.591682 0.514015 0.582428 0.505955 0.514015 0.425229 0.505955 0.418559 0.696144 0.646299 0.685212 0.636102 0.646299 0.582428 0.636102 0.573247 0.685212 0.636102 0.674422 0.626014 0.636102 0.573247 0.626014 0.564197 0.582428 0.505955 0.573247 0.498002 0.505955 0.418