# vtk DataFile Version 3.0
#This file was generated by the deal.II library on 2018/12/4 at 0:47:16
ASCII
DATASET UNSTRUCTURED_GRID

POINTS 14320 double
0 0.125 0
0.03125 0.125 0
0 0.15625 0
0.03125 0.15625 0
0 0.15625 0
0.03125 0.15625 0
0 0.1875 0
0.03125 0.1875 0
0.03125 0.15625 0
0.0625 0.15625 0
0.03125 0.1875 0
0.0625 0.1875 0
0.3125 0 0
0.34375 0 0
0.3125 0.03125 0
0.34375 0.03125 0
0.3125 0.03125 0
0.34375 0.03125 0
0.3125 0.0625 0
0.34375 0.0625 0
0.34375 0.03125 0
0.375 0.03125 0
0.34375 0.0625 0
0.375 0.0625 0
0.375 0.25 0
0.40625 0.25 0
0.375 0.28125 0
0.40625 0.28125 0
0.375 0.28125 0
0.40625 0.28125 0
0.375 0.3125 0
0.40625 0.3125 0
0 0 0
0.03125 0 0
0 0.03125 0
0.03125 0.03125 0
0.03125 0 0
0.0625 0 0
0.03125 0.03125 0
0.0625 0.03125 0
0 0.03125 0
0.03125 0.03125 0
0 0.0625 0
0.03125 0.0625 0
0.03125 0.03125 0
0.0625 0.03125 0
0.03125 0.0625 0
0.0625 0.0625 0
0 0.09375 0
0.03125 0.09375 0
0 0.125 0
0.03125 0.125 0
0.96875 0.125 0
1 0.125 0
0.96875 0.15625 0
1 0.15625 0
0.9375 0.15625 0
0.96875 0.15625 0
0.9375 0.1875 0
0.96875 0.1875 0
0.96875 0.15625 0
1 0.15625 0
0.96875 0.1875 0
1 0.1875 0
0.3125 0.0625 0
0.34375 0.0625 0
0.3125 0.09375 0
0.34375 0.09375 0
0.34375 0.0625 0
0.375 0.0625 0
0.34375 0.09375 0
0.375 0.09375 0
0.3125 0.09375 0
0.34375 0.09375 0
0.3125 0.125 0
0.34375 0.125 0
0.34375 0.09375 0
0.375 0.09375 0
0.34375 0.125 0
0.375 0.125 0
0.59375 0.25 0
0.625 0.25 0
0.59375 0.28125 0
0.625 0.28125 0
0.0625 0.28125 0
0.09375 0.28125 0
0.0625 0.3125 0
0.09375 0.3125 0
0.375 0.1875 0
0.40625 0.1875 0
0.375 0.21875 0
0.40625 0.21875 0
0.375 0.21875 0
0.40625 0.21875 0
0.375 0.25 0
0.40625 0.25 0
0.90625 0.28125 0
0.9375 0.28125 0
0.90625 0.3125 0
0.9375 0.3125 0
0.65625 0 0
0.6875 0 0
0.65625 0.03125 0
0.6875 0.03125 0
0.625 0.03125 0
0.65625 0.03125 0
0.625 0.0625 0
0.65625 0.0625 0
0.65625 0.03125 0
0.6875 0.03125 0
0.65625 0.0625 0
0.6875 0.0625 0
0.25 0.28125 0
0.28125 0.28125 0
0.25 0.3125 0
0.28125 0.3125 0
0.9375 0 0
0.96875 0 0
0.9375 0.03125 0
0.96875 0.03125 0
0.96875 0 0
1 0 0
0.96875 0.03125 0
1 0.03125 0
0.9375 0.03125 0
0.96875 0.03125 0
0.9375 0.0625 0
0.96875 0.0625 0
0.96875 0.03125 0
1 0.03125 0
0.96875 0.0625 0
1 0.0625 0
0.96875 0.09375 0
1 0.09375 0
0.96875 0.125 0
1 0.125 0
0.71875 0.28125 0
0.75 0.28125 0
0.71875 0.3125 0
0.75 0.3125 0
0.25 0.375 0
0.28125 0.375 0
0.25 0.40625 0
0.28125 0.40625 0
0.25 0.40625 0
0.28125 0.40625 0
0.25 0.4375 0
0.28125 0.4375 0
0.625 0.0625 0
0.65625 0.0625 0
0.625 0.09375 0
0.65625 0.09375 0
0.65625 0.0625 0
0.6875 0.0625 0
0.65625 0.09375 0
0.6875 0.09375 0
0.625 0.09375 0
0.65625 0.09375 0
0.625 0.125 0
0.65625 0.125 0
0.65625 0.09375 0
0.6875 0.09375 0
0.65625 0.125 0
0.6875 0.125 0
0.40625 0.5625 0
0.4375 0.5625 0
0.40625 0.59375 0
0.4375 0.59375 0
0.40625 0.59375 0
0.4375 0.59375 0
0.40625 0.625 0
0.4375 0.625 0
0.4375 0.5625 0
0.46875 0.5625 0
0.4375 0.59375 0
0.46875 0.59375 0
0.4375 0.59375 0
0.46875 0.59375 0
0.4375 0.625 0
0.46875 0.625 0
0.46875 0.59375 0
0.5 0.59375 0
0.46875 0.625 0
0.5 0.625 0
0.375 0.40625 0
0.40625 0.40625 0
0.375 0.4375 0
0.40625 0.4375 0
0.40625 0.40625 0
0.4375 0.40625 0
0.40625 0.4375 0
0.4375 0.4375 0
0.375 0.4375 0
0.40625 0.4375 0
0.375 0.46875 0
0.40625 0.46875 0
0.40625 0.4375 0
0.4375 0.4375 0
0.40625 0.46875 0
0.4375 0.46875 0
0.375 0.46875 0
0.40625 0.46875 0
0.375 0.5 0
0.40625 0.5 0
0.40625 0.46875 0
0.4375 0.46875 0
0.40625 0.5 0
0.4375 0.5 0
0.4375 0.625 0
0.46875 0.625 0
0.4375 0.65625 0
0.46875 0.65625 0
0.46875 0.625 0
0.5 0.625 0
0.46875 0.65625 0
0.5 0.65625 0
0.4375 0.65625 0
0.46875 0.65625 0
0.4375 0.6875 0
0.46875 0.6875 0
0.375 0 0
0.40625 0 0
0.375 0.03125 0
0.40625 0.03125 0
0.375 0.03125 0
0.40625 0.03125 0
0.375 0.0625 0
0.40625 0.0625 0
0.375 0.0625 0
0.40625 0.0625 0
0.375 0.09375 0
0.40625 0.09375 0
0.375 0.09375 0
0.40625 0.09375 0
0.375 0.125 0
0.40625 0.125 0
0.5625 0.40625 0
0.59375 0.40625 0
0.5625 0.4375 0
0.59375 0.4375 0
0.59375 0.40625 0
0.625 0.40625 0
0.59375 0.4375 0
0.625 0.4375 0
0.5625 0.4375 0
0.59375 0.4375 0
0.5625 0.46875 0
0.59375 0.46875 0
0.59375 0.4375 0
0.625 0.4375 0
0.59375 0.46875 0
0.625 0.46875 0
0.5625 0.46875 0
0.59375 0.46875 0
0.5625 0.5 0
0.59375 0.5 0
0.59375 0.46875 0
0.625 0.46875 0
0.59375 0.5 0
0.625 0.5 0
0.71875 0.375 0
0.75 0.375 0
0.71875 0.40625 0
0.75 0.40625 0
0.71875 0.40625 0
0.75 0.40625 0
0.71875 0.4375 0
0.75 0.4375 0
0 0.3125 0
0.03125 0.3125 0
0 0.34375 0
0.03125 0.34375 0
0 0.34375 0
0.03125 0.34375 0
0 0.375 0
0.03125 0.375 0
0.0625 0.375 0
0.09375 0.375 0
0.0625 0.40625 0
0.09375 0.40625 0
0.0625 0.40625 0
0.09375 0.40625 0
0.0625 0.4375 0
0.09375 0.4375 0
0.0625 0.4375 0
0.09375 0.4375 0
0.0625 0.46875 0
0.09375 0.46875 0
0.0625 0.46875 0
0.09375 0.46875 0
0.0625 0.5 0
0.09375 0.5 0
0.09375 0.46875 0
0.125 0.46875 0
0.09375 0.5 0
0.125 0.5 0
0.53125 0.5625 0
0.5625 0.5625 0
0.53125 0.59375 0
0.5625 0.59375 0
0.5 0.59375 0
0.53125 0.59375 0
0.5 0.625 0
0.53125 0.625 0
0.53125 0.59375 0
0.5625 0.59375 0
0.53125 0.625 0
0.5625 0.625 0
0.5625 0.5625 0
0.59375 0.5625 0
0.5625 0.59375 0
0.59375 0.59375 0
0.5625 0.59375 0
0.59375 0.59375 0
0.5625 0.625 0
0.59375 0.625 0
0.0625 0.3125 0
0.09375 0.3125 0
0.0625 0.34375 0
0.09375 0.34375 0
0.0625 0.34375 0
0.09375 0.34375 0
0.0625 0.375 0
0.09375 0.375 0
0.09375 0.34375 0
0.125 0.34375 0
0.09375 0.375 0
0.125 0.375 0
0.5 0.625 0
0.53125 0.625 0
0.5 0.65625 0
0.53125 0.65625 0
0.53125 0.625 0
0.5625 0.625 0
0.53125 0.65625 0
0.5625 0.65625 0
0.53125 0.65625 0
0.5625 0.65625 0
0.53125 0.6875 0
0.5625 0.6875 0
0.21875 0.3125 0
0.25 0.3125 0
0.21875 0.34375 0
0.25 0.34375 0
0.21875 0.40625 0
0.25 0.40625 0
0.21875 0.4375 0
0.25 0.4375 0
0.21875 0.4375 0
0.25 0.4375 0
0.21875 0.46875 0
0.25 0.46875 0
0.21875 0.46875 0
0.25 0.46875 0
0.21875 0.5 0
0.25 0.5 0
0.75 0.40625 0
0.78125 0.40625 0
0.75 0.4375 0
0.78125 0.4375 0
0.75 0.4375 0
0.78125 0.4375 0
0.75 0.46875 0
0.78125 0.46875 0
0.75 0.46875 0
0.78125 0.46875 0
0.75 0.5 0
0.78125 0.5 0
0.3125 0.125 0
0.34375 0.125 0
0.3125 0.15625 0
0.34375 0.15625 0
0.34375 0.125 0
0.375 0.125 0
0.34375 0.15625 0
0.375 0.15625 0
0.3125 0.15625 0
0.34375 0.15625 0
0.3125 0.1875 0
0.34375 0.1875 0
0.34375 0.15625 0
0.375 0.15625 0
0.34375 0.1875 0
0.375 0.1875 0
0.375 0.125 0
0.40625 0.125 0
0.375 0.15625 0
0.40625 0.15625 0
0.375 0.15625 0
0.40625 0.15625 0
0.375 0.1875 0
0.40625 0.1875 0
0.90625 0.375 0
0.9375 0.375 0
0.90625 0.40625 0
0.9375 0.40625 0
0.90625 0.40625 0
0.9375 0.40625 0
0.90625 0.4375 0
0.9375 0.4375 0
0.90625 0.4375 0
0.9375 0.4375 0
0.90625 0.46875 0
0.9375 0.46875 0
0.90625 0.46875 0
0.9375 0.46875 0
0.90625 0.5 0
0.9375 0.5 0
0.75 0.3125 0
0.78125 0.3125 0
0.75 0.34375 0
0.78125 0.34375 0
0.125 0.53125 0
0.15625 0.53125 0
0.125 0.5625 0
0.15625 0.5625 0
0.15625 0.53125 0
0.1875 0.53125 0
0.15625 0.5625 0
0.1875 0.5625 0
0.21875 0.5 0
0.25 0.5 0
0.21875 0.53125 0
0.25 0.53125 0
0.1875 0.53125 0
0.21875 0.53125 0
0.1875 0.5625 0
0.21875 0.5625 0
0.21875 0.53125 0
0.25 0.53125 0
0.21875 0.5625 0
0.25 0.5625 0
0.125 0.5625 0
0.15625 0.5625 0
0.125 0.59375 0
0.15625 0.59375 0
0.15625 0.5625 0
0.1875 0.5625 0
0.15625 0.59375 0
0.1875 0.59375 0
0.125 0.59375 0
0.15625 0.59375 0
0.125 0.625 0
0.15625 0.625 0
0.15625 0.59375 0
0.1875 0.59375 0
0.15625 0.625 0
0.1875 0.625 0
0.15625 0.625 0
0.1875 0.625 0
0.15625 0.65625 0
0.1875 0.65625 0
0.15625 0.65625 0
0.1875 0.65625 0
0.15625 0.6875 0
0.1875 0.6875 0
0.90625 0.3125 0
0.9375 0.3125 0
0.90625 0.34375 0
0.9375 0.34375 0
0.875 0.34375 0
0.90625 0.34375 0
0.875 0.375 0
0.90625 0.375 0
0.90625 0.34375 0
0.9375 0.34375 0
0.90625 0.375 0
0.9375 0.375 0
0.15625 0.6875 0
0.1875 0.6875 0
0.15625 0.71875 0
0.1875 0.71875 0
0.15625 0.71875 0
0.1875 0.71875 0
0.15625 0.75 0
0.1875 0.75 0
0.96875 0.3125 0
1 0.3125 0
0.96875 0.34375 0
1 0.34375 0
0.96875 0.34375 0
1 0.34375 0
0.96875 0.375 0
1 0.375 0
0.59375 0 0
0.625 0 0
0.59375 0.03125 0
0.625 0.03125 0
0.59375 0.03125 0
0.625 0.03125 0
0.59375 0.0625 0
0.625 0.0625 0
0.59375 0.0625 0
0.625 0.0625 0
0.59375 0.09375 0
0.625 0.09375 0
0.59375 0.09375 0
0.625 0.09375 0
0.59375 0.125 0
0.625 0.125 0
0.59375 0.125 0
0.625 0.125 0
0.59375 0.15625 0
0.625 0.15625 0
0.5625 0.15625 0
0.59375 0.15625 0
0.5625 0.1875 0
0.59375 0.1875 0
0.59375 0.15625 0
0.625 0.15625 0
0.59375 0.1875 0
0.625 0.1875 0
0.5625 0.1875 0
0.59375 0.1875 0
0.5625 0.21875 0
0.59375 0.21875 0
0.59375 0.1875 0
0.625 0.1875 0
0.59375 0.21875 0
0.625 0.21875 0
0.59375 0.21875 0
0.625 0.21875 0
0.59375 0.25 0
0.625 0.25 0
0.625 0.125 0
0.65625 0.125 0
0.625 0.15625 0
0.65625 0.15625 0
0.65625 0.125 0
0.6875 0.125 0
0.65625 0.15625 0
0.6875 0.15625 0
0.625 0.15625 0
0.65625 0.15625 0
0.625 0.1875 0
0.65625 0.1875 0
0.65625 0.15625 0
0.6875 0.15625 0
0.65625 0.1875 0
0.6875 0.1875 0
0.625 0.1875 0
0.65625 0.1875 0
0.625 0.21875 0
0.65625 0.21875 0
0.65625 0.1875 0
0.6875 0.1875 0
0.65625 0.21875 0
0.6875 0.21875 0
0.625 0.21875 0
0.65625 0.21875 0
0.625 0.25 0
0.65625 0.25 0
0.65625 0.21875 0
0.6875 0.21875 0
0.65625 0.25 0
0.6875 0.25 0
0.75 0.5 0
0.78125 0.5 0
0.75 0.53125 0
0.78125 0.53125 0
0.78125 0.5 0
0.8125 0.5 0
0.78125 0.53125 0
0.8125 0.53125 0
0.75 0.53125 0
0.78125 0.53125 0
0.75 0.5625 0
0.78125 0.5625 0
0.78125 0.53125 0
0.8125 0.53125 0
0.78125 0.5625 0
0.8125 0.5625 0
0.8125 0.53125 0
0.84375 0.53125 0
0.8125 0.5625 0
0.84375 0.5625 0
0.84375 0.53125 0
0.875 0.53125 0
0.84375 0.5625 0
0.875 0.5625 0
0.625 0.25 0
0.65625 0.25 0
0.625 0.28125 0
0.65625 0.28125 0
0.65625 0.25 0
0.6875 0.25 0
0.65625 0.28125 0
0.6875 0.28125 0
0.65625 0.28125 0
0.6875 0.28125 0
0.65625 0.3125 0
0.6875 0.3125 0
0.8125 0.5625 0
0.84375 0.5625 0
0.8125 0.59375 0
0.84375 0.59375 0
0.84375 0.5625 0
0.875 0.5625 0
0.84375 0.59375 0
0.875 0.59375 0
0.8125 0.59375 0
0.84375 0.59375 0
0.8125 0.625 0
0.84375 0.625 0
0 0.625 0
0.03125 0.625 0
0 0.65625 0
0.03125 0.65625 0
0 0.65625 0
0.03125 0.65625 0
0 0.6875 0
0.03125 0.6875 0
0.875 0.5625 0
0.90625 0.5625 0
0.875 0.59375 0
[...]
POINT_DATA 14320
SCALARS U double 1
LOOKUP_TABLE default
0 0.214284 0 0.208196 0 0.208196 0 0.201585 0.208196 0.398262 0.201585 0.385577 0.164262 -0.0825284 0.158239 -0.0810095 0.158239 -0.0810095 0.15246 -0.0790966 -0.0810095 -0.313147 -0.0790966 -0.303935 -0.255539 -0.419983 -0.248418 -0.407779 -0.248418 -0.407779 -0.24172 -0.396008 0 0.244414 0 0.236714 0.244414 0.467779 0.236714 0.452915 0 0.236714 0 0.229486 0.236714 0.452915 0.229486 0.438723 0 0.221521 0 0.214284 0.214288 2.7299e-16 0.208201 2.64591e-16 0.398272 0.208201 0.385589 0.201591 0.208201 2.64591e-16 0.201591 2.5645e-16 0.15246 -0.0790966 0.146932 -0.0773409 -0.0790966 -0.303935 -0.0773409 -0.295127 0.146932 -0.0773409 0.141598 -0.0756648 -0.0773409 -0.295127 -0.0756648 -0.286647 -0.419597 -0.255669 -0.407882 -0.248693 0.350422 0.487238 0.339108 0.4711 -0.270556 -0.445646 -0.262918 -0.432572 -0.262918 -0.432572 -0.255539 -0.419983 0.487267 0.350443 0.471136 0.339135 -0.0825284 0.164262 -0.0809958 0.158247 -0.313125 -0.0809958 -0.303887 -0.0790711 -0.0809958 0.158247 -0.0790711 0.15247 0.442439 0.293431 0.429009 0.283777 0.467779 0.244414 0.452917 0.236716 0.244414 3.09338e-16 0.236716 2.99821e-16 0.452917 0.236716 0.438727 0.229488 0.236716 2.99821e-16 0.229488 2.90596e-16 0.221524 2.81656e-16 0.214288 2.7299e-16 0.293475 0.442475 0.28383 0.429048 0.400439 0.265036 0.388372 0.256032 0.388372 0.256032 0.375756 0.247944 -0.303887 -0.0790711 -0.295036 -0.0773276 -0.0790711 0.15247 -0.0773276 0.146935 -0.295036 -0.0773276 -0.286675 -0.0756929 -0.0773276 0.146935 -0.0756929 0.141581 -0.311955 -0.406051 -0.302163 -0.393514 -0.302163 -0.393514 -0.293146 -0.381426 -0.406051 -0.465729 -0.393514 -0.451454 -0.393514 -0.451454 -0.381426 -0.437651 -0.451454 -0.472161 -0.437651 -0.456983 -0.221774 -0.362978 -0.215518 -0.351774 -0.362978 -0.472624 -0.351774 -0.458213 -0.215518 -0.351774 -0.209341 -0.341449 -0.351774 -0.458213 -0.341449 -0.444235 -0.209341 -0.341449 -0.203243 -0.331872 -0.341449 -0.444235 -0.331872 -0.43205 -0.381426 -0.437651 -0.368856 -0.423713 -0.437651 -0.456983 -0.423713 -0.443221 -0.368856 -0.423713 -0.357532 -0.41042 -0.322211 -0.534146 -0.313147 -0.51819 -0.313147 -0.51819 -0.303935 -0.502687 -0.303935 -0.502687 -0.295127 -0.48767 -0.295127 -0.48767 -0.286647 -0.473171 -0.472628 -0.36299 -0.458216 -0.351778 -0.36299 -0.221786 -0.351778 -0.215519 -0.458216 -0.351778 -0.444236 -0.34145 -0.351778 -0.215519 -0.34145 -0.209337 -0.444236 -0.34145 -0.432051 -0.331872 -0.34145 -0.209337 -0.331872 -0.203239 0.265059 0.400457 0.256041 0.38837 0.256041 0.38837 0.247968 0.375726 0 0.177204 0 0.171623 0 0.171623 0 0.166187 0.318052 0.442847 0.30785 0.427674 0.30785 0.427674 0.29804 0.414298 0.29804 0.414298 0.289439 0.402505 0.289439 0.402505 0.280645 0.390288 0.402505 0.480617 0.390288 0.465223 -0.465732 -0.406056 -0.451458 -0.393522 -0.472161 -0.451458 -0.456983 -0.437657 -0.451458 -0.393522 -0.437657 -0.381438 -0.406056 -0.311961 -0.393522 -0.302174 -0.393522 -0.302174 -0.381438 -0.293162 0.339108 0.4711 0.328451 0.457326 0.328451 0.457326 0.318052 0.442847 0.457326 0.546428 0.442847 0.529079 -0.456983 -0.437657 -0.443221 -0.423721 -0.437657 -0.381438 -0.423721 -0.368871 -0.423721 -0.368871 -0.410431 -0.357552 0.536554 0.429009 0.519156 0.414287 0.48658 0.388372 0.470521 0.375756 0.470521 0.375756 0.455461 0.362767 0.455461 0.362767 0.440843 0.352284 0.38837 0.486563 0.375726 0.470452 0.375726 0.470452 0.362885 0.455121 0.362885 0.455121 0.352411 0.44194 0.141598 -0.0756648 0.136449 -0.0740534 -0.0756648 -0.286647 -0.0740534 -0.278462 0.136449 -0.0740534 0.131468 -0.0725007 -0.0740534 -0.278462 -0.0725007 -0.270556 -0.286647 -0.473171 -0.278462 -0.459198 -0.278462 -0.459198 -0.270556 -0.445646 0.44292 0.318103 0.427786 0.307932 0.427786 0.307932 0.414693 0.298004 0.414693 0.298004 0.401827 0.289274 0.401827 0.289274 0.38951 0.280501 0.429048 0.536589 0.41432 0.519186 0.450767 0.485951 0.436517 0.470039 0.485951 0.478375 0.470039 0.462848 0.440843 0.352284 0.428376 0.34141 0.478375 0.428376 0.462848 0.415481 0.428376 0.34141 0.415481 0.331001 0.436517 0.470039 0.42266 0.455213 0.470039 0.462848 0.455213 0.447238 0.42266 0.455213 0.410608 0.441259 0.455213 0.447238 0.441259 0.433523 0.441259 0.433523 0.426819 0.420142 0.426819 0.420142 0.413956 0.407168 0.471136 0.339135 0.457375 0.328488 0.546479 0.457375 0.52915 0.44292 0.457375 0.328488 0.44292 0.318103 0.413956 0.407168 0.401239 0.394694 0.401239 0.394694 0.390003 0.383722 0.177219 2.26317e-16 0.171643 2.19354e-16 0.171643 2.19354e-16 0.166212 2.12605e-16 -0.534146 -0.322211 -0.518163 -0.313125 -0.518163 -0.313125 -0.502617 -0.303887 -0.502617 -0.303887 -0.487535 -0.295036 -0.487535 -0.295036 -0.472666 -0.286675 -0.472666 -0.286675 -0.45988 -0.278631 -0.601712 -0.45988 -0.583212 -0.446234 -0.45988 -0.278631 -0.446234 -0.270888 -0.583212 -0.446234 -0.56639 -0.433267 -0.446234 -0.270888 -0.433267 -0.263126 -0.433267 -0.263126 -0.419597 -0.255669 -0.286675 -0.0756929 -0.278631 -0.0741479 -0.0756929 0.141581 -0.0741479 0.13641 -0.278631 -0.0741479 -0.270888 -0.0726271 -0.0741479 0.13641 -0.0726271 0.131418 -0.270888 -0.0726271 -0.263126 -0.0711131 -0.0726271 0.131418 -0.0711131 0.126602 -0.263126 -0.0711131 -0.255669 -0.0695966 -0.0711131 0.126602 -0.0695966 0.122027 0.352411 0.44194 0.341552 0.428238 0.44194 0.492512 0.428238 0.477856 0.341552 0.428238 0.330998 0.415413 0.428238 0.477856 0.415413 0.462907 0.477856 0.486322 0.462907 0.470355 0.486322 0.450769 0.470355 0.437429 -0.255669 -0.0695966 -0.248693 -0.0680208 -0.0695966 0.122027 -0.0680208 0.117809 -0.0680208 0.117809 -0.0661682 0.113592 0.462907 0.470355 0.447234 0.455744 0.470355 0.437429 0.455744 0.423827 0.447234 0.455744 0.433506 0.440445 0 0.12913 0 0.124721 0 0.124721 0 0.121334 0.437429 0.366662 0.423827 0.354665 0.366662 0.263463 0.354665 0.255055 0.423827 0.354665 0.40954 0.343413 0.354665 0.255055 0.343413 0.24699 0.247204 0.344126 0.239045 0.332878 0.344126 0.410608 0.332878 0.396922 0.239045 0.332878 0.232288 0.322612 0.332878 0.396922 0.322612 0.384868 0.433506 0.440445 0.420067 0.427109 0.420067 0.427109 0.407194 0.413992 0 0.201585 0 0.194538 0 0.194538 0 0.188626 0.407194 0.413992 0.394686 0.40125 0.394686 0.40125 0.383696 0.389992 0.322612 0.384868 0.312352 0.372956 0.312352 0.372956 0.303471 0.362656 0.40954 0.343413 0.397121 0.332675 0.343413 0.24699 0.332675 0.239316 0.397121 0.332675 0.384889 0.322625 0.332675 0.239316 0.322625 0.232116 0.24699 0.129101 0.239316 0.125091 0.129101 1.65577e-16 0.125091 1.60483e-16 0.125091 1.60483e-16 0.121184 1.55545e-16 0.384889 0.322625 0.372967 0.312332 0.372967 0.312332 0.362651 0.303462 0.201591 2.5645e-16 0.194545 2.4856e-16 0.194545 2.4856e-16 0.188635 2.40913e-16 0.352284 0.232448 0.34141 0.224762 0.232448 0.0911848 0.224762 0.0881765 0.34141 0.224762 0.331001 0.217726 0.224762 0.0881765 0.217726 0.0851245 -0.43205 -0.496427 -0.4179 -0.480829 -0.496427 -0.518376 -0.480829 -0.502206 -0.4179 -0.480829 -0.406051 -0.465729 -0.480829 -0.502206 -0.465729 -0.487198 -0.357532 -0.41042 -0.346346 -0.397862 -0.41042 -0.42939 -0.397862 -0.415533 -0.346346 -0.397862 -0.335482 -0.385579 -0.397862 -0.415533 -0.385579 -0.40266 0 0.155703 0 0.151382 0 0.151382 0 0.146485 0.151382 0.289439 0.146485 0.280645 -0.518376 -0.496428 -0.502206 -0.48083 -0.496428 -0.432051 -0.48083 -0.417903 -0.502206 -0.48083 -0.487198 -0.465732 -0.48083 -0.417903 -0.465732 -0.406056 0.0912153 0.232515 0.0882005 0.224812 0.232515 0.352411 0.224812 0.341552 0.0882005 0.224812 0.0851333 0.21775 0.224812 0.341552 0.21775 0.330998 -0.42939 -0.410431 -0.415533 -0.397874 -0.410431 -0.357552 -0.397874 -0.34637 -0.415533 -0.397874 -0.40266 -0.385593 -0.397874 -0.34637 -0.385593 -0.335509 0.155684 1.99724e-16 0.151334 1.93579e-16 0.289274 0.151334 0.280501 0.146437 0.151334 1.93579e-16 0.146437 1.87623e-16 0 0.137337 0 0.133109 0.137337 0.262767 0.133109 0.254309 0 0.133109 0 0.12913 0.133109 0.254309 0.12913 0.247204 0.263463 0.137494 0.255055 0.133282 0.137494 1.76256e-16 0.133282 1.70833e-16 0.255055 0.133282 0.24699 0.129101 0.133282 1.70833e-16 0.129101 1.65577e-16 -0.275347 -0.210804 -0.266256 -0.203432 -0.210804 -0.127684 -0.203432 -0.123086 -0.266256 -0.203432 -0.257545 -0.196501 -0.203432 -0.123086 -0.196501 -0.118535 0.064859 0.161534 0.0635901 0.157135 0.0635901 0.157135 0.0624263 0.153475 0 0.188626 0 0.182856 0 0.182856 0 0.177204 0.309956 0.204167 0.300311 0.197662 0.204167 0.0797133 0.197662 0.0773858 0.300311 0.197662 0.291138 0.191676 0.197662 0.0773858 0.191676 0.0751756 0.291138 0.191676 0.282255 0.186136 0.191676 0.0751756 0.186136 0.0731708 0.282255 0.186136 0.274785 0.180988 0.186136 0.0731708 0.180988 0.0712766 0.362656 0.390003 0.350892 0.378139 0.390003 0.383722 0.378139 0.372257 0.350892 0.378139 0.340624 0.366767 0.378139 0.372257 0.366767 0.36112 0.383722 0.344755 0.372257 0.333927 0.344755 0.274785 0.333927 0.266249 0.372257 0.333927 0.36112 0.323983 0.333927 0.266249 0.323983 0.258631 0.340624 0.366767 0.330406 0.356047 0.366767 0.36112 0.356047 0.350528 0.330406 0.356047 0.321435 0.345773 0.356047 0.350528 0.345773 0.340434 0.36112 0.323983 0.350528 0.314571 0.323983 0.258631 0.314571 0.251264 0.350528 0.314571 0.340434 0.30557 0.314571 0.251264 0.30557 0.244212 0.131468 -0.0725007 0.126645 -0.0709959 -0.0725007 -0.270556 -0.0709959 -0.262918 0.126645 -0.0709959 0.122031 -0.0695186 -0.0709959 -0.262918 -0.0695186 -0.255539 0.269222 0.321435 0.26117 0.312073 0.26117 0.312073 0.25372 0.303193 0.188635 2.40913e-16 0.182867 2.33501e-16 0.182867 2.33501e-16 0.177219 2.26317e-16 0.25372 0.303193 0.246865 0.294775 0.321435 0.345773 0.312073 0.335935 0.345773 0.340434 0.335935 0.33076 0.312073 0.335935 0.303193 0.326413 0.335935 0.33076 0.326413 0.321458 0.340434 0.30557 0.33076 0.297006 0.30557 0.244212 0.297006 0.237355 0.33076 0.297006 0.321458 0.288777 0.297006 0.237355 0.288777 0.231343 0.303193 0.326413 0.294775 0.317196 0.326413 0.321458 0.317196 0.312476 0.294775 0.317196 0.286169 0.308255 0.317196 0.312476 0.308255 0.303795 0.321458 0.288777 0.312476 0.280861 0.288777 0.231343 0.280861 0.225028 0.312476 0.280861 0.303795 0.273172 0.280861 0.225028 0.273172 0.219024 0.0796934 0.204147 0.077355 0.197632 0.204147 0.309934 0.197632 0.300282 0.077355 0.197632 0.0751335 0.191635 0.197632 0.300282 0.191635 0.291103 0.0751335 0.191635 0.0731155 0.186083 0.191635 0.291103 0.186083 0.28221 0.0731155 0.186083 0.0712058 0.180918 0.186083 0.28221 0.180918 0.274725 0.274725 0.34471 0.266171 0.333865 0.34471 0.383696 0.333865 0.372214 0.266171 0.333865 0.258537 0.323908 0.333865 0.372214 0.323908 0.361066 0.383696 0.389992 0.372214 0.378113 0.389992 0.362651 0.378113 0.350878 0.372214 0.378113 0.361066 0.36673 0.378113 0.350878 0.36673 0.340602 0.258537 0.323908 0.251169 0.314498 0.323908 0.361066 0.314498 0.350473 0.251169 0.314498 0.24414 0.305548 0.314498 0.350473 0.305548 0.340386 0.361066 0.36673 0.350473 0.356004 0.36673 0.340602 0.356004 0.330377 0.350473 0.356004 0.340386 0.34572 0.356004 0.330377 0.34572 0.3214 0.24414 0.305548 0.237646 0.297074 0.305548 0.340386 0.297074 0.330663 0.297074 0.330663 0.288352 0.321342 0.340386 0.34572 0.330663 0.335873 0.34572 0.3214 0.335873 0.312035 0.330663 0.335873 0.321342 0.326347 0.335873 0.312035 0.326347 0.303159 0.288352 0.321342 0.280706 0.312371 0.280706 0.312371 0.273172 0.303795 0.321342 0.326347 0.312371 0.317153 0.326347 0.303159 0.317153 0.294754 0.312371 0.317153 0.303795 0.308255 0.317153 0.294754 0.308255 0.286169 0.3214 0.269203 0.312035 0.26115 0.312035 0.26115 0.303159 0.253703 0.122031 -0.0695186 0.117732 -0.0680833 -0.0695186 -0.255539 -0.0680833 -0.248418 0.117732 -0.0680833 0.113503 -0.0665858 -0.0680833 -0.248418 -0.0665858 -0.24172 0.303159 0.253703 0.294754 0.246855 0.113503 -0.0665858 0.109219 -0.0647141 0.109219 -0.0647141 0.105263 -0.0638072 -0.0661682 0.113592 -0.0647672 0.109291 -0.0647672 0.109291 -0.0638203 0.105272 0.105263 -0.0638072 0.101421 -0.0625015 -0.0638072 -0.227583 -0.0625015 -0.221774 0.101421 -0.0625015 0.0976585 -0.0612303 -0.0625015 -0.221774 -0.0612303 -0.215518 0.0976585 -0.0612303 0.0940017 -0.0597822 -0.0612303 -0.215518 -0.0597822 -0.209341 0.0940017 -0.0597822 0.0911848 -0.0581847 -0.0597822 -0.209341 -0.0581847 -0.203243 0.0911848 -0.0581847 0.0881765 -0.0565839 -0.0581847 -0.203243 -0.0565839 -0.196709 0.0881765 -0.0565839 0.0851245 -0.0550939 -0.0565839 -0.196709 -0.0550939 -0.191145 0.0851245 -0.0550939 0.0818395 -0.0535858 -0.0550939 -0.191145 -0.0535858 -0.18549 0.0818395 -0.0535858 0.0797133 -0.0519445 -0.0535858 -0.18549 -0.0519445 -0.179708 0 0.113911 0 0.110034 0 0.110034 0 0.107204 0 0.107204 0 0.103961 0.107204 0.205105 0.103961 0.19906 0 0.103961 0 0.100917 -0.227624 -0.0638203 -0.221786 -0.0625044 -0.0638203 0.105272 -0.0625044 0.10143 -0.221786 -0.0625044 -0.215519 -0.0612238 -0.0625044 0.10143 -0.0612238 0.0976747 -0.215519 -0.0612238 -0.209337 -0.0597701 -0.0612238 0.0976747 -0.0597701 0.0940287 -0.209337 -0.0597701 -0.203239 -0.0581715 -0.0597701 0.0940287 -0.0581715 0.0912153 0 0.166187 0 0.1609 0 0.1609 0 0.155703 -0.203239 -0.0581715 -0.196708 -0.056575 -0.0581715 0.0912153 -0.056575 0.0882005 -0.196708 -0.056575 -0.191149 -0.0550933 -0.056575 0.0882005 -0.0550933 0.0851333 -0.191149 -0.0550933 -0.1855 -0.0535954 -0.0550933 0.0851333 -0.0535954 0.0818324 -0.1855 -0.0535954 -0.179727 -0.0519642 -0.0535954 0.0818324 -0.0519642 0.0796934 0.113899 1.46121e-16 0.11003 1.41625e-16 0.11003 1.41625e-16 0.107202 1.37268e-16 0.2051 0.107202 0.199053 0.103958 0.107202 1.37268e-16 0.103958 1.33045e-16 0.103958 1.33045e-16 0.100913 1.28951e-16 0.166212 2.12605e-16 0.160917 2.06064e-16 0.160917 2.06064e-16 0.155684 1.99724e-16 0 0.146485 0 0.141217 0 0.141217 0 0.137337 0.180988 0.0712766 0.175464 0.0695206 0.175464 0.0695206 0.170734 0.0678723 0.0712766 -0.0447832 0.0695206 -0.0429527 -0.0447832 -0.157444 -0.0429527 -0.152105 0.0695206 -0.0429527 0.0678723 -0.0411136 -0.0429527 -0.152105 -0.0411136 -0.146899 0.170734 0.0678723 0.16609 0.0663897 0.16609 0.0663897 0.161652 0.0649977 0.0678723 -0.0411136 0.0663897 -0.0392778 -0.0411136 -0.146899 -0.0392778 -0.141832 0.0663897 -0.0392778 0.0649977 -0.0374429 -0.0392778 -0.141832 -0.0374429 -0.136897 0.161652 0.0649977 0.15731 0.0637582 0.15731 0.0637582 0.153724 0.0625982 0.0649977 -0.0374429 0.0637582 -0.0356215 -0.0374429 -0.136897 -0.0356215 -0.132093 0.0637582 -0.0356215 0.0625982 -0.0338227 -0.0356215 -0.132093 -0.0338227 -0.12743 0.231343 0.153724 0.225028 0.149752 0.153724 0.0625982 0.149752 0.061512 0.225028 0.149752 0.219024 0.146014 0.149752 0.061512 0.146014 0.0604286 0.0625982 -0.0338227 0.061512 -0.0320689 -0.0338227 -0.12743 -0.0320689 -0.12291 0.061512 -0.0320689 0.0604286 -0.0303605 -0.0320689 -0.12291 -0.0303605 -0.118535 0.146437 1.87623e-16 0.141248 1.81851e-16 0.141248 1.81851e-16 0.137494 1.76256e-16 -0.157498 -0.0448485 -0.152167 -0.0430305 -0.0448485 0.0712058 -0.0430305 0.0694332 -0.152167 -0.0430305 -0.146961 -0.0412007 -0.0430305 0.0694332 -0.0412007 0.0677693 0.0712058 0.180918 0.0694332 0.175376 0.0694332 0.175376 0.0677693 0.170629 -0.146961 -0.0412007 -0.141882 -0.0393682 -0.0412007 0.0677693 -0.0393682 0.0662735 -0.141882 -0.0393682 -0.13691 -0.0375271 -0.0393682 0.0662735 -0.0375271 0.064859 0.0677693 0.170629 0.0662735 0.165974 0.0662735 0.165974 0.064859 0.161534 -0.13691 -0.0375271 -0.131984 -0.0357403 -0.0375271 0.064859 -0.0357403 0.0635901 -0.131984 -0.0357403 -0.127684 -0.0339585 -0.0357403 0.0635901 -0.0339585 0.0624263 0.0797133 -0.0519445 0.0773858 -0.0501633 -0.0519445 -0.179708 -0.0501633 -0.173939 0.0773858 -0.0501633 0.0751756 -0.0483874 -0.0501633 -0.173939 -0.0483874 -0.168346 0.0751756 -0.0483874 0.0731708 -0.0465991 -0.0483874 -0.168346 -0.0465991 -0.162866 0.0731708 -0.0465991 0.0712766 -0.0447832 -0.0465991 -0.162866 -0.0447832 -0.157444 -0.179727 -0.0519642 -0.173966 -0.0501931 -0.0519642 0.0796934 -0.0501931 0.077355 -0.173966 -0.0501931 -0.168382 -0.0484279 -0.0501931 0.077355 -0.0484279 0.0751335 -0.168382 -0.0484279 -0.162912 -0.0466514 -0.0484279 0.0751335 -0.0466514 0.0731155 -0.162912 -0.0466514 -0.157498 -0.0448485 -0.0466514 0.0731155 -0.0448485 0.0712058 0 0.121334 0 0.117511 0.121334 0.232288 0.117511 0.224535 0 0.117511 0 0.113911 0.117511 0.224535 0.113911 0.218028 0.232116 0.121184 0.224488 0.117465 0.121184 1.55545e-16 0.117465 1.50759e-16 0.224488 0.117465 0.218012 0.113899 0.117465 1.50759e-16 0.113899 1.46121e-16 -0.127684 -0.0339585 -0.123086 -0.0321812 -0.0339585 0.0624263 -0.0321812 0.0613971 -0.123086 -0.0321812 -0.118535 -0.0303605 -0.0321812 0.0613971 -0.0303605 0.0604286 0.0624263 0.153475 0.0613971 0.149609 0.153475 0.231084 0.149609 0.224847 0.0613971 0.149609 0.0604286 0.146014 0.149609 0.224847 0.146014 0.219024 0 0.100917 0 0.0980505 0.100917 0.193342 0.0980505 0.187688 0 0.0980505 0 0.0952375 0.0980505 0.187688 0.0952375 0.18233 0 0.0952375 0 0.0925288 0.0952375 0.18233 0.0925288 0.177135 0 0.0925288 0 0.0899148 0.0925288 0.177135 0.0899148 0.172086 0.193332 0.100913 0.187679 0.0980468 0.100913 1.28951e-16 0.0980468 1.24984e-16 0.187679 0.0980468 0.182322 0.0952345 0.0980468 1.24984e-16 0.0952345 1.21139e-16 0.182322 0.0952345 0.17713 0.0925271 0.0952345 1.21139e-16 0.0925271 1.17412e-16 0.17713 0.0925271 0.172086 0.0899148 0.0925271 1.17412e-16 0.0899148 1.13799e-16 0.214284 0.315882 0.21124 0.310682 0.315882 0.41056 0.310682 0.403818 0.21124 0.310682 0.208196 0.303229 0.310682 0.403818 0.303229 0.398262 0.398262 0.480991 0.391919 0.473155 0.391919 0.473155 0.385577 0.465554 0.385577 0.465554 0.378537 0.457985 0.378537 0.457985 0.372661 0.450536 0.372661 0.450536 0.366747 0.443238 0.366747 0.443238 0.360872 0.436303 0.467779 0.565439 0.460347 0.556379 0.565439 0.650859 0.556379 0.640408 0.460347 0.556379 0.452915 0.547465 0.556379 0.640408 0.547465 0.630116 0.650859 0.72219 0.640408 0.710572 0.72219 0.777887 0.710572 0.765149 0.640408 0.710572 0.630116 0.699151 0.710572 0.765149 0.699151 0.753216 0.452915 0.547465 0.445819 0.538667 0.547465 0.630116 0.538667 0.619959 0.445819 0.538667 0.438723 0.529878 0.538667 0.619959 0.529878 0.609926 0.630116 0.699151 0.619959 0.687917 0.699151 0.753216 0.687917 0.741029 0.619959 0.687917 0.609926 0.6768 0.687917 0.741029 0.6768 0.729029 0.481004 0.398272 0.473168 0.391931 0.473168 0.391931 0.465568 0.385589 0.438723 0.529878 0.43072 0.521214 0.529878 0.609926 0.521214 0.600022 0.43072 0.521214 0.424009 0.512705 0.521214 0.600022 0.512705 0.590292 0.465568 0.385589 0.458001 0.37855 0.458001 0.37855 0.450553 0.372675 0.450553 0.372675 0.443257 0.366763 0.443257 0.366763 0.436323 0.360889 0.609926 0.6768 0.600022 0.665847 0.6768 0.729029 0.665847 0.717279 0.600022 0.665847 0.590292 0.655029 0.665847 0.717279 0.655029 0.705699 -0.552522 -0.584675 -0.544163 -0.575777 -0.584675 -0.604168 -0.575777 -0.595039 -0.604168 -0.610709 -0.595039 -0.601509 -0.544163 -0.575777 -0.535875 -0.567037 -0.535875 -0.567037 -0.528093 -0.558554 -0.575777 -0.595039 -0.567037 -0.586162 -0.595039 -0.601509 -0.586162 -0.592466 0.360872 0.436303 0.354875 0.429057 0.436303 0.502309 0.429057 0.493933 0.354875 0.429057 0.350422 0.41883 0.429057 0.493933 0.41883 0.487238 0.424009 0.512705 0.417249 0.504475 0.512705 0.590292 0.504475 0.580758 0.417249 0.504475 0.41056 0.496391 0.504475 0.580758 0.496391 0.57145 0.661928 0.602572 0.651044 0.592615 0.590292 0.655029 0.580758 0.644419 0.655029 0.705699 0.644419 0.693895 0.580758 0.644419 0.57145 0.634029 0.644419 0.693895 0.634029 0.682842 0.753216 0.791126 0.741029 0.778043 0.791126 0.811313 0.778043 0.797917 0.741029 0.778043 0.729029 0.765441 0.778043 0.797917 0.765441 0.785382 0.502332 0.436323 0.493959 0.429079 0.436323 0.360889 0.429079 0.354894 0.493959 0.429079 0.487267 0.418855 0.429079 0.354894 0.418855 0.350443 0.825801 0.79276 0.812411 0.779905 0.79276 0.742559 0.779905 0.730497 0.812411 0.779905 0.799243 0.767263 0.779905 0.730497 0.767263 0.718647 0.742559 0.676284 0.730497 0.665256 0.676284 0.595369 0.665256 0.585