# vtk DataFile Version 3.0
#This file was generated by the deal.II library on 2018/12/4 at 0:47:18
ASCII
DATASET UNSTRUCTURED_GRID

POINTS 81316 double
0.3125 0.15625 0
0.34375 0.15625 0
0.3125 0.1875 0
0.34375 0.1875 0
0.65625 0.15625 0
0.6875 0.15625 0
0.65625 0.1875 0
0.6875 0.1875 0
0.65625 0.1875 0
0.6875 0.1875 0
0.65625 0.21875 0
0.6875 0.21875 0
0.65625 0.21875 0
0.6875 0.21875 0
0.65625 0.25 0
0.6875 0.25 0
0.65625 0.25 0
0.6875 0.25 0
0.65625 0.28125 0
0.6875 0.28125 0
0.65625 0.28125 0
0.6875 0.28125 0
0.65625 0.3125 0
0.6875 0.3125 0
0 0.625 0
0.03125 0.625 0
0 0.65625 0
0.03125 0.65625 0
0 0.4375 0
0.03125 0.4375 0
0 0.46875 0
0.03125 0.46875 0
0 0.46875 0
0.03125 0.46875 0
0 0.5 0
0.03125 0.5 0
0.96875 0.4375 0
1 0.4375 0
0.96875 0.46875 0
1 0.46875 0
0.96875 0.46875 0
1 0.46875 0
0.96875 0.5 0
1 0.5 0
0.96875 0.59375 0
1 0.59375 0
0.96875 0.625 0
1 0.625 0
0.6875 0.875 0
0.71875 0.875 0
0.6875 0.90625 0
0.71875 0.90625 0
0.6875 0.90625 0
0.71875 0.90625 0
0.6875 0.9375 0
0.71875 0.9375 0
0.3125 0.1875 0
0.34375 0.1875 0
0.3125 0.21875 0
0.34375 0.21875 0
0.3125 0.21875 0
0.34375 0.21875 0
0.3125 0.25 0
0.34375 0.25 0
0.3125 0.25 0
0.34375 0.25 0
0.3125 0.28125 0
0.34375 0.28125 0
0.3125 0.28125 0
0.34375 0.28125 0
0.3125 0.3125 0
0.34375 0.3125 0
0.3125 0.3125 0
0.34375 0.3125 0
0.3125 0.34375 0
0.34375 0.34375 0
0.65625 0.3125 0
0.6875 0.3125 0
0.65625 0.34375 0
0.6875 0.34375 0
0.3125 0.5 0
0.34375 0.5 0
0.3125 0.53125 0
0.34375 0.53125 0
0.3125 0.5625 0
0.34375 0.5625 0
0.3125 0.59375 0
0.34375 0.59375 0
0.3125 0.59375 0
0.34375 0.59375 0
0.3125 0.625 0
0.34375 0.625 0
0.34375 0.59375 0
0.375 0.59375 0
0.34375 0.625 0
0.375 0.625 0
0 0.375 0
0.03125 0.375 0
0 0.40625 0
0.03125 0.40625 0
0 0.40625 0
0.03125 0.40625 0
0 0.4375 0
0.03125 0.4375 0
0.65625 0.5 0
0.6875 0.5 0
0.65625 0.53125 0
0.6875 0.53125 0
0.65625 0.5625 0
0.6875 0.5625 0
0.65625 0.59375 0
0.6875 0.59375 0
0.625 0.59375 0
0.65625 0.59375 0
0.625 0.625 0
0.65625 0.625 0
0.65625 0.59375 0
0.6875 0.59375 0
0.65625 0.625 0
0.6875 0.625 0
0.96875 0.375 0
1 0.375 0
0.96875 0.40625 0
1 0.40625 0
0.96875 0.40625 0
1 0.40625 0
0.96875 0.4375 0
1 0.4375 0
0 0.5 0
0.03125 0.5 0
0 0.53125 0
0.03125 0.53125 0
0 0.53125 0
0.03125 0.53125 0
0 0.5625 0
0.03125 0.5625 0
0.34375 0.75 0
0.375 0.75 0
0.34375 0.78125 0
0.375 0.78125 0
0.34375 0.78125 0
0.375 0.78125 0
0.34375 0.8125 0
0.375 0.8125 0
0.3125 0.8125 0
0.34375 0.8125 0
0.3125 0.84375 0
0.34375 0.84375 0
0.34375 0.8125 0
0.375 0.8125 0
0.34375 0.84375 0
0.375 0.84375 0
0.3125 0.84375 0
0.34375 0.84375 0
0.3125 0.875 0
0.34375 0.875 0
0.34375 0.84375 0
0.375 0.84375 0
0.34375 0.875 0
0.375 0.875 0
0.28125 0.875 0
0.3125 0.875 0
0.28125 0.90625 0
0.3125 0.90625 0
0.28125 0.90625 0
0.3125 0.90625 0
0.28125 0.9375 0
0.3125 0.9375 0
0.3125 0.875 0
0.34375 0.875 0
0.3125 0.90625 0
0.34375 0.90625 0
0.34375 0.875 0
0.375 0.875 0
0.34375 0.90625 0
0.375 0.90625 0
0.3125 0.90625 0
0.34375 0.90625 0
0.3125 0.9375 0
0.34375 0.9375 0
0.34375 0.90625 0
0.375 0.90625 0
0.34375 0.9375 0
0.375 0.9375 0
0.28125 0.9375 0
0.3125 0.9375 0
0.28125 0.96875 0
0.3125 0.96875 0
0.28125 0.96875 0
0.3125 0.96875 0
0.28125 1 0
0.3125 1 0
0.3125 0.9375 0
0.34375 0.9375 0
0.3125 0.96875 0
0.34375 0.96875 0
0.3125 0.96875 0
0.34375 0.96875 0
0.3125 1 0
0.34375 1 0
0.96875 0.5 0
1 0.5 0
0.96875 0.53125 0
1 0.53125 0
0.96875 0.53125 0
1 0.53125 0
0.96875 0.5625 0
1 0.5625 0
0.625 0.75 0
0.65625 0.75 0
0.625 0.78125 0
0.65625 0.78125 0
0.625 0.78125 0
0.65625 0.78125 0
0.625 0.8125 0
0.65625 0.8125 0
0.625 0.8125 0
0.65625 0.8125 0
0.625 0.84375 0
0.65625 0.84375 0
0.65625 0.8125 0
0.6875 0.8125 0
0.65625 0.84375 0
0.6875 0.84375 0
0.625 0.84375 0
0.65625 0.84375 0
0.625 0.875 0
0.65625 0.875 0
0.65625 0.84375 0
0.6875 0.84375 0
0.65625 0.875 0
0.6875 0.875 0
0.625 0.875 0
0.65625 0.875 0
0.625 0.90625 0
0.65625 0.90625 0
0.65625 0.875 0
0.6875 0.875 0
0.65625 0.90625 0
0.6875 0.90625 0
0.625 0.90625 0
0.65625 0.90625 0
0.625 0.9375 0
0.65625 0.9375 0
0.65625 0.90625 0
0.6875 0.90625 0
0.65625 0.9375 0
0.6875 0.9375 0
0.3125 0.625 0
0.34375 0.625 0
0.3125 0.65625 0
0.34375 0.65625 0
0.34375 0.625 0
0.375 0.625 0
0.34375 0.65625 0
0.375 0.65625 0
0.3125 0.65625 0
0.34375 0.65625 0
0.3125 0.6875 0
0.34375 0.6875 0
0.34375 0.65625 0
0.375 0.65625 0
0.34375 0.6875 0
0.375 0.6875 0
0.3125 0.6875 0
0.34375 0.6875 0
0.3125 0.71875 0
0.34375 0.71875 0
0.34375 0.6875 0
0.375 0.6875 0
0.34375 0.71875 0
0.375 0.71875 0
0.3125 0.71875 0
0.34375 0.71875 0
0.3125 0.75 0
0.34375 0.75 0
0.34375 0.71875 0
0.375 0.71875 0
0.34375 0.75 0
0.375 0.75 0
0.625 0.625 0
0.65625 0.625 0
0.625 0.65625 0
0.65625 0.65625 0
0.65625 0.625 0
0.6875 0.625 0
0.65625 0.65625 0
0.6875 0.65625 0
0.625 0.65625 0
0.65625 0.65625 0
0.625 0.6875 0
0.65625 0.6875 0
0.65625 0.65625 0
0.6875 0.65625 0
0.65625 0.6875 0
0.6875 0.6875 0
0.625 0.6875 0
0.65625 0.6875 0
0.625 0.71875 0
0.65625 0.71875 0
0.65625 0.6875 0
0.6875 0.6875 0
0.65625 0.71875 0
0.6875 0.71875 0
0.625 0.71875 0
0.65625 0.71875 0
0.625 0.75 0
0.65625 0.75 0
0.65625 0.71875 0
0.6875 0.71875 0
0.65625 0.75 0
0.6875 0.75 0
0.65625 0.9375 0
0.6875 0.9375 0
0.65625 0.96875 0
0.6875 0.96875 0
0.65625 0.96875 0
0.6875 0.96875 0
0.65625 1 0
0.6875 1 0
0.6875 0.9375 0
0.71875 0.9375 0
0.6875 0.96875 0
0.71875 0.96875 0
0.6875 0.96875 0
0.71875 0.96875 0
0.6875 1 0
0.71875 1 0
0 0.125 0
0.015625 0.125 0
0 0.140625 0
0.015625 0.140625 0
0.015625 0.125 0
0.03125 0.125 0
0.015625 0.140625 0
0.03125 0.140625 0
0 0.140625 0
0.015625 0.140625 0
0 0.15625 0
0.015625 0.15625 0
0.015625 0.140625 0
0.03125 0.140625 0
0.015625 0.15625 0
0.03125 0.15625 0
0.296875 0.046875 0
0.3125 0.046875 0
0.296875 0.0625 0
0.3125 0.0625 0
0.6875 0.046875 0
0.703125 0.046875 0
0.6875 0.0625 0
0.703125 0.0625 0
0.296875 0.65625 0
0.3125 0.65625 0
0.296875 0.671875 0
0.3125 0.671875 0
0.296875 0.671875 0
0.3125 0.671875 0
0.296875 0.6875 0
0.3125 0.6875 0
0.875 0.484375 0
0.890625 0.484375 0
0.875 0.5 0
0.890625 0.5 0
0.296875 0.6875 0
0.3125 0.6875 0
0.296875 0.703125 0
0.3125 0.703125 0
0.296875 0.703125 0
0.3125 0.703125 0
0.296875 0.71875 0
0.3125 0.71875 0
0.6875 0.65625 0
0.703125 0.65625 0
0.6875 0.671875 0
0.703125 0.671875 0
0.6875 0.671875 0
0.703125 0.671875 0
0.6875 0.6875 0
0.703125 0.6875 0
0.6875 0.6875 0
0.703125 0.6875 0
0.6875 0.703125 0
0.703125 0.703125 0
0.6875 0.703125 0
0.703125 0.703125 0
0.6875 0.71875 0
0.703125 0.71875 0
0 0.15625 0
0.015625 0.15625 0
0 0.171875 0
0.015625 0.171875 0
0.015625 0.15625 0
0.03125 0.15625 0
0.015625 0.171875 0
0.03125 0.171875 0
0 0.171875 0
0.015625 0.171875 0
0 0.1875 0
0.015625 0.1875 0
0.015625 0.171875 0
0.03125 0.171875 0
0.015625 0.1875 0
0.03125 0.1875 0
0.3125 0.53125 0
0.328125 0.53125 0
0.3125 0.546875 0
0.328125 0.546875 0
0.328125 0.53125 0
0.34375 0.53125 0
0.328125 0.546875 0
0.34375 0.546875 0
0.3125 0.546875 0
0.328125 0.546875 0
0.3125 0.5625 0
0.328125 0.5625 0
0.328125 0.546875 0
0.34375 0.546875 0
0.328125 0.5625 0
0.34375 0.5625 0
0.03125 0.3125 0
0.046875 0.3125 0
0.03125 0.328125 0
0.046875 0.328125 0
0.046875 0.3125 0
0.0625 0.3125 0
0.046875 0.328125 0
0.0625 0.328125 0
0.375 0.484375 0
0.390625 0.484375 0
0.375 0.5 0
0.390625 0.5 0
0.125 0.71875 0
0.140625 0.71875 0
0.125 0.734375 0
0.140625 0.734375 0
0.9375 0.3125 0
0.953125 0.3125 0
0.9375 0.328125 0
0.953125 0.328125 0
0.953125 0.3125 0
0.96875 0.3125 0
0.953125 0.328125 0
0.96875 0.328125 0
0.859375 0.71875 0
0.875 0.71875 0
0.859375 0.734375 0
0.875 0.734375 0
0.078125 0.6875 0
0.09375 0.6875 0
0.078125 0.703125 0
0.09375 0.703125 0
0.90625 0.6875 0
0.921875 0.6875 0
0.90625 0.703125 0
0.921875 0.703125 0
0.609375 0.484375 0
0.625 0.484375 0
0.609375 0.5 0
0.625 0.5 0
0.03125 0.28125 0
0.046875 0.28125 0
0.03125 0.296875 0
0.046875 0.296875 0
0.046875 0.28125 0
0.0625 0.28125 0
0.046875 0.296875 0
0.0625 0.296875 0
0.03125 0.296875 0
0.046875 0.296875 0
0.03125 0.3125 0
0.046875 0.3125 0
0.046875 0.296875 0
0.0625 0.296875 0
0.046875 0.3125 0
0.0625 0.3125 0
0.9375 0.28125 0
0.953125 0.28125 0
0.9375 0.296875 0
0.953125 0.296875 0
0.953125 0.28125 0
0.96875 0.28125 0
0.953125 0.296875 0
0.96875 0.296875 0
0.9375 0.296875 0
0.953125 0.296875 0
0.9375 0.3125 0
0.953125 0.3125 0
0.953125 0.296875 0
0.96875 0.296875 0
0.953125 0.3125 0
0.96875 0.3125 0
0.25 0.453125 0
0.265625 0.453125 0
0.25 0.46875 0
0.265625 0.46875 0
0.25 0.46875 0
0.265625 0.46875 0
0.25 0.484375 0
0.265625 0.484375 0
0.25 0.484375 0
0.265625 0.484375 0
0.25 0.5 0
0.265625 0.5 0
0.34375 0.15625 0
0.359375 0.15625 0
0.34375 0.171875 0
0.359375 0.171875 0
0.359375 0.15625 0
0.375 0.15625 0
0.359375 0.171875 0
0.375 0.171875 0
0.34375 0.171875 0
0.359375 0.171875 0
0.34375 0.1875 0
0.359375 0.1875 0
0.359375 0.171875 0
0.375 0.171875 0
0.359375 0.1875 0
0.375 0.1875 0
0.421875 0.640625 0
0.4375 0.640625 0
0.421875 0.65625 0
0.4375 0.65625 0
0.421875 0.65625 0
0.4375 0.65625 0
0.421875 0.671875 0
0.4375 0.671875 0
0.421875 0.671875 0
0.4375 0.671875 0
0.421875 0.6875 0
0.4375 0.6875 0
0.421875 0.6875 0
0.4375 0.6875 0
0.421875 0.703125 0
0.4375 0.703125 0
0.421875 0.703125 0
0.4375 0.703125 0
0.421875 0.71875 0
0.4375 0.71875 0
0.109375 0.75 0
0.125 0.75 0
0.109375 0.765625 0
0.125 0.765625 0
0.109375 0.765625 0
0.125 0.765625 0
0.109375 0.78125 0
0.125 0.78125 0
0.109375 0.78125 0
0.125 0.78125 0
0.109375 0.796875 0
0.125 0.796875 0
0.109375 0.796875 0
0.125 0.796875 0
0.109375 0.8125 0
0.125 0.8125 0
0.109375 0.859375 0
0.125 0.859375 0
0.109375 0.875 0
0.125 0.875 0
0.734375 0.453125 0
0.75 0.453125 0
0.734375 0.46875 0
0.75 0.46875 0
0.734375 0.46875 0
0.75 0.46875 0
0.734375 0.484375 0
0.75 0.484375 0
0.734375 0.484375 0
0.75 0.484375 0
0.734375 0.5 0
0.75 0.5 0
0.5625 0.640625 0
0.578125 0.640625 0
0.5625 0.65625 0
0.578125 0.65625 0
0.5625 0.65625 0
0.578125 0.65625 0
0.5625 0.671875 0
0.578125 0.671875 0
0.5625 0.671875 0
0.578125 0.671875 0
0.5625 0.6875 0
0.578125 0.6875 0
0.5625 0.6875 0
0.578125 0.6875 0
[...]
POINT_DATA 81316
SCALARS U double 1
LOOKUP_TABLE default
0.127603 -0.0665297 0.123278 -0.0648685 -0.0665262 0.127607 -0.064864 0.123283 -0.064864 0.123283 -0.0632078 0.119144 -0.0632078 0.119144 -0.0615889 0.115155 -0.0615889 0.115155 -0.0600074 0.111304 -0.0600074 0.111304 -0.0584711 0.10759 0 0.119909 0 0.116227 0 0.14457 0 0.140079 0 0.140079 0 0.135759 0.144577 1.83632e-16 0.140088 1.77982e-16 0.140088 1.77982e-16 0.13576 1.72507e-16 0.123657 1.57069e-16 0.119881 1.52236e-16 0.0616643 0.15093 0.0600006 0.146467 0.0600006 0.146467 0.0584519 0.142249 0.123278 -0.0648685 0.119137 -0.0632161 0.119137 -0.0632161 0.115148 -0.0616017 0.115148 -0.0616017 0.111302 -0.0600161 0.111302 -0.0600161 0.107591 -0.058449 0.107591 -0.058449 0.104041 -0.0569432 -0.0584711 0.10759 -0.0569492 0.10404 0.0881319 -0.0495669 0.0853125 -0.0481301 0.082602 -0.0466512 0.0800363 -0.0454668 0.0800363 -0.0454668 0.0775462 -0.0440099 -0.0454668 -0.167276 -0.0440099 -0.162004 0 0.154079 0 0.149196 0 0.149196 0 0.14457 -0.0495672 0.0881361 -0.0481237 0.085318 -0.0466355 0.0826061 -0.0454709 0.0800374 -0.167285 -0.0454709 -0.162007 -0.044013 -0.0454709 0.0800374 -0.044013 0.0775439 0.154081 1.95475e-16 0.1492 1.89461e-16 0.1492 1.89461e-16 0.144577 1.83632e-16 0 0.135759 0 0.131618 0 0.131618 0 0.12765 -0.038436 -0.142566 -0.0371371 -0.138021 -0.0371371 -0.138021 -0.0357522 -0.133565 0.0649668 -0.0357522 0.0631174 -0.0343973 -0.0357522 -0.133565 -0.0343973 -0.129199 0.0631174 -0.0343973 0.0616642 -0.0330564 -0.0343973 -0.129199 -0.0330564 -0.124944 0.150935 0.0616642 0.146447 0.0599952 0.146447 0.0599952 0.142225 0.0584452 0.0616642 -0.0330564 0.0599952 -0.0317424 -0.0330564 -0.124944 -0.0317424 -0.120809 0.0599952 -0.0317424 0.0584452 -0.0304874 -0.0317424 -0.120809 -0.0304874 -0.116874 0.142225 0.0584452 0.138162 0.0569729 0.138162 0.0569729 0.13425 0.05556 0.0584452 -0.0304874 0.0569729 -0.0290805 0.0569729 -0.0290805 0.05556 -0.0279144 0.13576 1.72507e-16 0.131591 1.67199e-16 0.131591 1.67199e-16 0.127562 1.62055e-16 -0.142569 -0.038439 -0.138024 -0.0371405 -0.138024 -0.0371405 -0.133569 -0.035756 -0.133569 -0.035756 -0.129205 -0.0344014 -0.035756 0.0649621 -0.0344014 0.0631129 -0.129205 -0.0344014 -0.124953 -0.0330603 -0.0344014 0.0631129 -0.0330603 0.0616643 -0.124953 -0.0330603 -0.120824 -0.0317438 -0.0330603 0.0616643 -0.0317438 0.0600006 -0.120824 -0.0317438 -0.116873 -0.0304877 -0.0317438 0.0600006 -0.0304877 0.0584519 0.0775462 -0.0440099 0.0751981 -0.042592 -0.0440099 -0.162004 -0.042592 -0.156958 0.0751981 -0.042592 0.0729496 -0.0411922 -0.042592 -0.156958 -0.0411922 -0.152032 0.0729496 -0.0411922 0.0708418 -0.0398062 -0.0411922 -0.152032 -0.0398062 -0.147226 0.0708418 -0.0398062 0.0688091 -0.038436 -0.0398062 -0.147226 -0.038436 -0.142566 -0.162007 -0.044013 -0.15696 -0.0425947 -0.044013 0.0775439 -0.0425947 0.0751952 -0.15696 -0.0425947 -0.152034 -0.0411948 -0.0425947 0.0751952 -0.0411948 0.0729466 -0.152034 -0.0411948 -0.147228 -0.039809 -0.0411948 0.0729466 -0.039809 0.0708386 -0.147228 -0.039809 -0.142569 -0.038439 -0.039809 0.0708386 -0.038439 0.0688056 -0.0304877 0.0584519 -0.0290798 0.0569768 -0.0290798 0.0569768 -0.0279144 0.05556 0.0584519 0.142249 0.0569768 0.138161 0.0569768 0.138161 0.05556 0.13425 0 0.100126 0 0.0985564 0.100126 0.198085 0.0985564 0.194981 0 0.0985564 0 0.0970078 0.0985564 0.194981 0.0970078 0.191921 0.248416 0.143648 0.24429 0.141241 0.143649 0.248418 0.141243 0.244292 0.132252 0.0751981 0.130141 0.0740739 0.130141 0.0740739 0.128192 0.0729496 0.438874 0.407539 0.432051 0.4012 0.128192 0.0729496 0.126236 0.0718957 0.126236 0.0718957 0.124432 0.0708418 0.0751952 0.132249 0.0740709 0.130138 0.0740709 0.130138 0.0729466 0.128189 0.0729466 0.128189 0.0718926 0.126233 0.0718926 0.126233 0.0708386 0.124429 0 0.0970078 0 0.0954983 0.0970078 0.191921 0.0954983 0.188873 0 0.0954983 0 0.0940151 0.0954983 0.188873 0.0940151 0.186034 0.0853125 0.0185912 0.0838643 0.0184294 0.0185912 -0.0481301 0.0184294 -0.0474876 0.0838643 0.0184294 0.082602 0.0179754 0.0184294 -0.0474876 0.0179754 -0.0466512 0.163985 0.241524 0.161423 0.237769 0.241524 0.313807 0.237769 0.308914 -0.186241 -0.248831 -0.183377 -0.245131 0.347143 0.364403 0.341769 0.358792 0.31381 0.241526 0.308916 0.237772 0.241526 0.163986 0.237772 0.161425 0.364403 0.347144 0.358792 0.34177 0.260378 0.299665 0.256303 0.295014 0.299672 0.260386 0.29502 0.25631 -0.248829 -0.186239 -0.245131 -0.183378 0.16923 0.249346 0.166597 0.245369 0.249346 0.323891 0.245369 0.318799 0.166597 0.245369 0.163985 0.241524 0.245369 0.318799 0.241524 0.313807 0.323893 0.249348 0.318801 0.245371 0.249348 0.169232 0.245371 0.166598 0.318801 0.245371 0.31381 0.241526 0.245371 0.166598 0.241526 0.163986 0.344881 0.28997 0.339401 0.285341 0.339401 0.285341 0.334075 0.280852 0.334075 0.280852 0.328897 0.276498 -0.0665297 -0.162649 -0.0656991 -0.160237 -0.162649 -0.255132 -0.160237 -0.251318 -0.0656991 -0.160237 -0.0648685 -0.15792 -0.160237 -0.251318 -0.15792 -0.24759 -0.30575 -0.342673 -0.3009 -0.337249 -0.3009 -0.337249 -0.296172 -0.331956 -0.296172 -0.331956 -0.291519 -0.326747 -0.291519 -0.326747 -0.286938 -0.32162 -0.286938 -0.32162 -0.282464 -0.316613 0.3125 0.336487 0.307614 0.331266 0.307614 0.331266 0.302877 0.326173 0.302877 0.326173 0.298231 0.321175 0.298231 0.321175 0.293716 0.316312 0.280456 0.30204 0.276175 0.297434 0.289974 0.344885 0.285345 0.339405 0.285345 0.339405 0.280857 0.33408 0.280857 0.33408 0.276503 0.328903 -0.342673 -0.305751 -0.33725 -0.300901 -0.33725 -0.300901 -0.331957 -0.296174 -0.331957 -0.296174 -0.326748 -0.291521 -0.326748 -0.291521 -0.321621 -0.286939 -0.321621 -0.286939 -0.316614 -0.282466 0.336487 0.312501 0.331265 0.307614 0.331265 0.307614 0.326172 0.302877 0.326172 0.302877 0.321173 0.298231 0.321173 0.298231 0.31631 0.293716 0.30204 0.280456 0.297434 0.276176 0.314165 0.361575 0.309253 0.35594 -0.255131 -0.162647 -0.25132 -0.160235 -0.162647 -0.0665262 -0.160235 -0.0656951 -0.25132 -0.160235 -0.24759 -0.157917 -0.160235 -0.0656951 -0.157917 -0.064864 -0.24759 -0.157917 -0.243921 -0.15564 -0.157917 -0.064864 -0.15564 -0.0640359 -0.243921 -0.15564 -0.240307 -0.153396 -0.15564 -0.0640359 -0.153396 -0.0632078 -0.240307 -0.153396 -0.236745 -0.151183 -0.153396 -0.0632078 -0.151183 -0.0623983 -0.236745 -0.151183 -0.233235 -0.149001 -0.151183 -0.0623983 -0.149001 -0.0615889 -0.233235 -0.149001 -0.229774 -0.146848 -0.149001 -0.0615889 -0.146848 -0.0607981 -0.229774 -0.146848 -0.226361 -0.144723 -0.146848 -0.0607981 -0.144723 -0.0600074 -0.35267 -0.364607 -0.347079 -0.358823 -0.364607 -0.368581 -0.358823 -0.362735 0.229236 0.176448 0.225661 0.17371 0.176448 0.119881 0.17371 0.117876 0.225661 0.17371 0.222147 0.170924 0.217959 0.15474 0.214494 0.152284 0.15474 0.0881319 0.152284 0.0867222 0.214494 0.152284 0.211108 0.149863 0.152284 0.0867222 0.149863 0.0853125 0.211108 0.149863 0.207797 0.147537 0.149863 0.0853125 0.147537 0.0838643 0.140079 0.206368 0.137919 0.202991 0.137919 0.202991 0.135759 0.2 -0.368581 -0.364607 -0.362735 -0.358823 -0.364607 -0.352671 -0.358823 -0.34708 0.0881361 0.154745 0.0867271 0.152289 0.154745 0.217964 0.152289 0.214498 0.0867271 0.152289 0.085318 0.149868 0.152289 0.214498 0.149868 0.211112 0.085318 0.149868 0.08387 0.147541 0.149868 0.211112 0.147541 0.2078 0.206384 0.140088 0.203005 0.137924 0.203005 0.137924 0.20001 0.13576 0.240263 0.184946 0.236523 0.18204 0.184946 0.125349 0.18204 0.123657 0.236523 0.18204 0.232851 0.179242 0.18204 0.123657 0.179242 0.121769 0.232851 0.179242 0.229236 0.176448 0.179242 0.121769 0.176448 0.119881 -0.221692 -0.189946 -0.218074 -0.186805 -0.189946 -0.153983 -0.186805 -0.151463 -0.218074 -0.186805 -0.214516 -0.183648 -0.214516 -0.183648 -0.211016 -0.180669 0.151028 0.0379853 0.148498 0.0372107 0.0379853 -0.0758792 0.0372107 -0.0748957 0.148498 0.0372107 0.145984 0.0364742 0.0372107 -0.0748957 0.0364742 -0.0739066 0.23998 0.189271 0.236276 0.186332 0.136369 0.0775462 0.134264 0.0763721 0.189271 0.134264 0.186332 0.132252 0.134264 0.0763721 0.132252 0.0751981 0.236276 0.186332 0.232645 0.183384 0.232645 0.183384 0.229074 0.180608 -0.0758792 -0.188101 -0.0748957 -0.185387 -0.188101 -0.296251 -0.185387 -0.291852 -0.0748957 -0.185387 -0.0739066 -0.182763 -0.185387 -0.291852 -0.182763 -0.287553 0.229074 0.180608 0.225584 0.177839 0.225584 0.177839 0.222148 0.175227 0.145984 0.0364742 0.143648 0.0357535 0.0364742 -0.0739066 0.0357535 -0.072856 0.143648 0.0357535 0.141241 0.035045 0.0357535 -0.072856 0.035045 -0.0719192 0.222148 0.175227 0.218724 0.172579 0.218724 0.172579 0.215494 0.169884 0.175227 0.124432 0.172579 0.122569 0.124432 0.0708418 0.122569 0.0698254 0.122569 0.0698254 0.120647 0.0688091 -0.0648685 -0.15792 -0.0640423 -0.155646 -0.15792 -0.24759 -0.155646 -0.243925 -0.0640423 -0.155646 -0.0632161 -0.153405 -0.155646 -0.243925 -0.153405 -0.240317 -0.0632161 -0.153405 -0.0624089 -0.151195 -0.153405 -0.240317 -0.151195 -0.23676 -0.0624089 -0.151195 -0.0616017 -0.149017 -0.151195 -0.23676 -0.149017 -0.233254 0.0775439 0.136367 0.0763696 0.134262 0.0763696 0.134262 0.0751952 0.132249 0.134262 0.189268 0.132249 0.186329 0.189268 0.239977 0.186329 0.236272 0.24429 0.141241 0.240474 0.138878 0.336828 0.240474 0.331355 0.236532 0.240474 0.138878 0.236532 0.136555 0.186329 0.236272 0.183381 0.232641 0.183381 0.232641 0.180604 0.22907 0.331355 0.236532 0.326029 0.232666 0.236532 0.136555 0.232666 0.134246 0.326029 0.232666 0.320788 0.228868 0.232666 0.134246 0.228868 0.131969 0.180604 0.22907 0.177836 0.22558 0.177836 0.22558 0.175223 0.222144 0.0708386 0.124429 0.0698221 0.122565 0.124429 0.175223 0.122565 0.172576 0.0698221 0.122565 0.0688056 0.120643 0.175223 0.222144 0.172576 0.21872 0.172576 0.21872 0.16988 0.21549 -0.0616017 -0.149017 -0.0608089 -0.146867 -0.149017 -0.233254 -0.146867 -0.229799 -0.0608089 -0.146867 -0.0600161 -0.144752 -0.146867 -0.229799 -0.144752 -0.226395 -0.0600161 -0.144752 -0.0592326 -0.142669 -0.144752 -0.226395 -0.142669 -0.223074 -0.0592326 -0.142669 -0.058449 -0.140477 -0.0555151 -0.132713 -0.0547639 -0.130653 -0.0547639 -0.130653 -0.0540096 -0.128823 -0.0466512 -0.110686 -0.046059 -0.108909 -0.046059 -0.108909 -0.0454668 -0.106371 -0.108909 -0.1696 -0.106371 -0.167276 0 0.11359 0 0.111813 0.11359 0.224722 0.111813 0.221205 0 0.111813 0 0.110063 0.111813 0.221205 0.110063 0.217744 -0.0510578 -0.121291 -0.0503571 -0.119491 -0.0503571 -0.119491 -0.0495669 -0.117741 -0.119491 -0.186241 -0.117741 -0.183377 -0.0495669 -0.117741 -0.0488485 -0.115869 -0.0488485 -0.115869 -0.0481301 -0.114116 -0.132701 -0.055508 -0.130641 -0.0547557 -0.130641 -0.0547557 -0.128813 -0.0540016 0 0.110063 0 0.108341 0.110063 0.217744 0.108341 0.214337 0 0.108341 0 0.106646 0.108341 0.214337 0.106646 0.210983 0 0.106646 0 0.104978 0.106646 0.210983 0.104978 0.207682 0 0.104978 0 0.103335 0.104978 0.207682 0.103335 0.204433 -0.121288 -0.0510542 -0.119489 -0.050355 -0.186239 -0.119489 -0.183378 -0.117741 -0.119489 -0.050355 -0.117741 -0.0495672 -0.117741 -0.0495672 -0.115873 -0.0488454 -0.115873 -0.0488454 -0.114142 -0.0481237 0.120647 0.0688091 0.118866 0.0677579 0.118866 0.0677579 0.117097 0.0668 0.21371 0.179928 0.210547 0.177289 0.179928 0.142225 0.177289 0.140193 0.210547 0.177289 0.207438 0.1747 0.177289 0.140193 0.1747 0.138162 -0.213357 -0.285465 -0.210182 -0.281284 -0.210182 -0.281284 -0.207082 -0.277003 -0.281284 -0.346334 -0.277003 -0.341005 0.207438 0.1747 0.204382 0.172153 0.1747 0.138162 0.172153 0.136206 0.204382 0.172153 0.201378 0.16965 0.172153 0.136206 0.16965 0.13425 -0.0481237 0.0185972 -0.047471 0.0184381 0.0185972 0.085318 0.0184381 0.08387 -0.047471 0.0184381 -0.0466355 0.0179853 0.0184381 0.08387 0.0179853 0.0826061 0.0688056 0.120643 0.0677542 0.118862 0.0677542 0.118862 0.0667959 0.117092 0.165717 0.215341 0.163216 0.212045 0.215353 0.165736 0.212055 0.16323 -0.110631 -0.0466355 -0.108933 -0.0460532 -0.169624 -0.108933 -0.167285 -0.106378 -0.108933 -0.0460532 -0.106378 -0.0454709 0.142249 0.180007 0.140205 0.177256 0.140205 0.177256 0.138161 0.174696 0.141243 0.244292 0.138881 0.240477 0.138881 0.240477 0.136559 0.236535 0.240477 0.336831 0.236535 0.331358 0.138161 0.174696 0.136205 0.172152 0.136205 0.172152 0.13425 0.16965 0.0892683 0.131439 0.087916 0.12951 0.087916 0.12951 0.0865849 0.127576 0.12951 0.168245 0.127576 0.16568 0.13144 0.0892686 0.12951 0.0879163 0.168246 0.12951 0.165681 0.127577 0.12951 0.0879163 0.127577 0.0865852 0.136559 0.236535 0.13425 0.232669 0.236535 0.331358 0.232669 0.326032 0.13425 0.232669 0.131973 0.228871 0.232669 0.326032 0.228871 0.320791 0.141241 0.035045 0.138878 0.0343239 0.035045 -0.0719192 0.0343239 -0.070988 0.138878 0.0343239 0.136555 0.03361 0.0343239 -0.070988 0.03361 -0.070072 0.136555 0.03361 0.134246 0.0329023 0.03361 -0.070072 0.0329023 -0.0691706 0.134246 0.0329023 0.131969 0.0321963 0.0329023 -0.0691706 0.0321963 -0.0682834 -0.29426 -0.219787 -0.289729 -0.21652 -0.289729 -0.21652 -0.28555 -0.213317 -0.351639 -0.28555 -0.346236 -0.281225 -0.28555 -0.213317 -0.281225 -0.210171 -0.346236 -0.281225 -0.340981 -0.27697 -0.281225 -0.210171 -0.27697 -0.20706 0.320788 0.228868 0.315637 0.225143 0.228868 0.131969 0.225143 0.12971 0.315637 0.225143 0.31057 0.221482 0.225143 0.12971 0.221482 0.127603 0.31057 0.221482 0.305583 0.217876 0.221482 0.127603 0.217876 0.125441 0.305583 0.217876 0.300667 0.214318 0.217876 0.125441 0.214318 0.123278 0.300667 0.214318 0.295829 0.210816 0.214318 0.123278 0.210816 0.121208 0.295829 0.210816 0.291077 0.207379 0.210816 0.121208 0.207379 0.119137 0.291077 0.207379 0.286407 0.203999 0.207379 0.119137 0.203999 0.117143 0.286407 0.203999 0.281814 0.20068 0.203999 0.117143 0.20068 0.115148 -0.296251 -0.188101 -0.291851 -0.185386 -0.188101 -0.0758792 -0.185386 -0.0748949 -0.291851 -0.185386 -0.287551 -0.182761 -0.185386 -0.0748949 -0.182761 -0.0739051 0 0.103335 0 0.101718 0.103335 0.204433 0.101718 0.201235 0 0.101718 0 0.100126 0.101718 0.201235 0.100126 0.198085 -0.0739051 0.0364755 -0.0728537 0.0357555 0.0364755 0.145985 0.0357555 0.143649 -0.0728537 0.0357555 -0.0719163 0.0350476 0.0357555 0.143649 0.0350476 0.141243 0.281814 0.20068 0.277294 0.197414 0.20068 0.115148 0.197414 0.113225 0.277294 0.197414 0.272846 0.194206 0.197414 0.113225 0.194206 0.111302 0.272846 0.194206 0.268476 0.191049 0.194206 0.111302 0.191049 0.109446 0.268476 0.191049 0.264178 0.187951 0.191049 0.109446 0.187951 0.107591 0.264178 0.187951 0.259949 0.184904 0.187951 0.107591 0.184904 0.105816 0.259949 0.184904 0.25579 0.181902 0.184904 0.105816 0.181902 0.104041 0.25579 0.181902 0.251687 0.178964 0.181902 0.104041 0.178964 0.102245 0.251687 0.178964 0.247653 0.175981 0.131973 0.228871 0.129714 0.225147 0.228871 0.320791 0.225147 0.315641 0.129714 0.225147 0.127607 0.221486 0.225147 0.315641 0.221486 0.310574 0.127607 0.221486 0.125445 0.217881 0.221486 0.310574 0.217881 0.305587 0.125445 0.217881 0.123283 0.214323 0.217881 0.305587 0.214323 0.300672 0.123283 0.214323 0.121214 0.210821 0.214323 0.300672 0.210821 0.295834 0.121214 0.210821 0.119144 0.207385 0.210821 0.295834 0.207385 0.291082 0.119144 0.207385 0.117149 0.204005 0.207385 0.291082 0.204005 0.286412 0.117149 0.204005 0.115155 0.200686 0.204005 0.286412 0.200686 0.281819 0.198085 0.100126 0.194981 0.0985567 0.100126 2.50995e-16 0.0985567 2.47104e-16 0.194981 0.0985567 0.191921 0.0970081 0.0985567 2.47104e-16 0.0970081 2.43273e-16 0.191921 0.0970081 0.188874 0.0954987 0.0970081 2.43273e-16 0.0954987 2.39502e-16 0.188874 0.0954987 0.186035 0.0940156 0.0954987 2.39502e-16 0.0940156 2.35788e-16 0.115155 0.200686 0.113229 0.197418 0.200686 0.281819 0.197418 0.277298 0.113229 0.197418 0.111304 0.194209 0.197418 0.277298 0.194209 0.27285 0.111304 0.194209 0.109447 0.191051 0.194209 0.27285 0.191051 0.268479 0.109447 0.191051 0.10759 0.187953 0.191051 0.268479 0.187953 0.26418 0.10759 0.187953 0.105815 0.184904 0.187953 0.26418 0.184904 0.259951 0.105815 0.184904 0.10404 0.181903 0.184904 0.259951 0.181903 0.255792 0.10404 0.181903 0.102246 0.178966 0.181903 0.255792 0.178966 0.251689 0.178966 0.251689 0.175985 0.247656 0.247653 0.175981 0.243689 0.173165 0.243689 0.173165 0.239808 0.170379 0.239808 0.170379 0.235991 0.167642 0.235991 0.167642 0.232259 0.164941 -0.0719163 0.0350476 -0.0709844 0.0343271 0.0350476 0.141243 0.0343271 0.138881 -0.0709844 0.0343271 -0.070068 0.0336135 0.0343271 0.138881 0.0336135 0.136559 -0.070068 0.0336135 -0.0691663 0.0329061 0.0336135 0.136559 0.0329061 0.13425 -0.0691663 0.0329061 -0.0682793 0.0322002 0.0329061 0.13425 0.0322002 0.131973 -0.183377 -0.245131 -0.180498 -0.241328 -0.245131 -0.301655 -0.241328 -0.296952 -0.180498 -0.241328 -0.177727 -0.237605 -0.241328 -0.296952 -0.237605 -0.292376 -0.177727 -0.237605 -0.17507 -0.23395 -0.237605 -0.292376 -0.23395 -0.287871 -0.17507 -0.23395 -0.172338 -0.230345 -0.23395 -0.287871 -0.230345 -0.283437 -0.172338 -0.230345 -0.1696 -0.226818 -0.230345 -0.283437 -0.226818 -0.27907 -0.1696 -0.226818 -0.167276 -0.223341 -0.226818 -0.27907 -0.223341 -0.274763 -0.167276 -0.223341 -0.16464 -0.219906 -0.223341 -0.274763 -0.219906 -0.270505 -0.16464 -0.219906 -0.162004 -0.216478 -0.219906 -0.270505 -0.216478 -0.266303 -0.207082 -0.277003 -0.203879 -0.272829 -0.277003 -0.341005 -0.272829 -0.335831 -0.203879 -0.272829 -0.200932 -0.268799 -0.272829 -0.335831 -0.268799 -0.330774 -0.340981 -0.27697 -0.335814 -0.27281 -0.27697 -0.20706 -0.27281 -0.203862 -0.335814 -0.27281 -0.330762 -0.268786 -0.27281 -0.203862 -0.268786 -0.20092 0.175985 0.247656 0.173169 0.243693 0.173169 0.243693 0.170383 0.239812 0.170383 0.239812 0.167647 0.235995 0.167647 0.235995 0.164945 0.232263 0 0.0828874 0 0.08156 0.0828874 0.163985 0.08156 0.161423 0 0.08156 0 0.0802611 0 0.0802611 0 0.0789559 0.0802611 0.158876 0.0789559 0.156308 0 0.0789559 0 0.0770393 0.0789559 0.156308 0.0770393 0.154079 0.158876 0.234041 0.156308 0.23037 0.234041 0.304086 0.23037 0.299321 0.156308 0.23037 0.154079 0.226781 0.23037 0.299321 0.226781 0.294649 -0.301653 -0.245131 -0.296949 -0.241329 -0.245131 -0.183378 -0.241329 -0.180503 -0.296949 -0.241329 -0.29237 -0.237597 -0.241329 -0.180503 -0.237597 -0.177753 -0.29237 -0.237597 -0.287862 -0.233933 -0.237597 -0.177753 -0.233933 -0.175014 -0.287862 -0.233933 -0.283429 -0.230328 -0.233933 -0.175014 -0.230328 -0.172283 -0.283429 -0.230328 -0.279065 -0.226812 -0.230328 -0.172283 -0.226812 -0.169624 -0.279065 -0.226812 -0.274762 -0.223345 -0.226812 -0.169624 -0.223345 -0.167285 -0.274762 -0.223345 -0.270506 -0.219909 -0.223345 -0.167285 -0.219909 -0.164646 -0.270506 -0.219909 -0.266305 -0.216481 -0.219909 -0.164646 -0.216481 -0.162007 0.131969 0.0321963 0.12971 0.0314848 0.0321963 -0.0682834 0.0314848 -0.0674197 0.12971 0.0314848 0.127603 0.0305367 0.0314848 -0.0674197 0.0305367 -0.0665297 -0.0758792 0.0379853 -0.0748949 0.0372114 0.0379853 0.151028 0.0372114 0.148499 -0.0748949 0.0372114 -0.0739051 0.0364755 0.0372114 0.148499 0.0364755 0.145985 0.163986 0.0828881 0.161425 0.0815608 0.0828881 2.08083e-16 0.0815608 2.04857e-16 0.0815608 2.04857e-16 0.080262 2.01681e-16 0.304089 0.234043 0.299324 0.230372 0.234043 0.158878 0.230372 0.15631 0.299324 0.230372 0.294653 0.226785 0.230372 0.15631 0.226785 0.154081 0.158878 0.080262 0.15631 0.0789569 0.080262 2.01681e-16 0.0789569 1.98554e-16 0.15631 0.0789569 0.154081 0.0770405 0.0789569 1.98554e-16 0.0770405 1.95475e-16 -0.0682793 0.0322002 -0.0674159 0.0314887 0.0322002 0.131973 0.0314887 0.129714 -0.0674159 0.0314887 -0.0665262 0.0305405 0.0314887 0.129714 0.0305405 0.127607 0.224722 0.11359 0.221205 0.111813 0.11359 2.84415e-16 0.111813 2.80006e-16 0.221205 0.111813 0.217744 0.110064 0.111813 2.80006e-16 0.110064 2.75665e-16 0.217744 0.110064 0.214337 0.108342 0.110064 2.75665e-16 0.108342 2.71391e-16 0.214337 0.108342 0.210984 0.106646 0.108342 2.71391e-16 0.106646 2.67183e-16 0.210984 0.106646 0.207683 0.104978 0.106646 2.67183e-16 0.104978 2.63041e-16 0.207683 0.104978 0.204434 0.103336 0.104978 2.63041e-16 0.103336 2.58963e-16 0.204434 0.103336 0.2012