# vtk DataFile Version 3.0
#This file was generated by the deal.II library on 2018/12/4 at 0:47:15
ASCII
DATASET UNSTRUCTURED_GRID

POINTS 160 double
0 0.25 0
0.25 0.25 0
0 0.5 0
0.25 0.5 0
0.75 0.25 0
1 0.25 0
0.75 0.5 0
1 0.5 0
0 0.5 0
0.25 0.5 0
0 0.75 0
0.25 0.75 0
0 0.75 0
0.25 0.75 0
0 1 0
0.25 1 0
0.25 0.75 0
0.5 0.75 0
0.25 1 0
0.5 1 0
0.75 0.5 0
1 0.5 0
0.75 0.75 0
1 0.75 0
0.5 0.75 0
0.75 0.75 0
0.5 1 0
0.75 1 0
0.75 0.75 0
1 0.75 0
0.75 1 0
1 1 0
0 0 0
0.125 0 0
0 0.125 0
0.125 0.125 0
0.125 0 0
0.25 0 0
0.125 0.125 0
0.25 0.125 0
0 0.125 0
0.125 0.125 0
0 0.25 0
0.125 0.25 0
0.125 0.125 0
0.25 0.125 0
0.125 0.25 0
0.25 0.25 0
0.25 0 0
0.375 0 0
0.25 0.125 0
0.375 0.125 0
0.375 0 0
0.5 0 0
0.375 0.125 0
0.5 0.125 0
0.25 0.125 0
0.375 0.125 0
0.25 0.25 0
0.375 0.25 0
0.375 0.125 0
0.5 0.125 0
0.375 0.25 0
0.5 0.25 0
0.25 0.25 0
0.375 0.25 0
0.25 0.375 0
0.375 0.375 0
0.375 0.25 0
0.5 0.25 0
0.375 0.375 0
0.5 0.375 0
0.25 0.375 0
0.375 0.375 0
0.25 0.5 0
0.375 0.5 0
0.375 0.375 0
0.5 0.375 0
0.375 0.5 0
0.5 0.5 0
0.5 0 0
0.625 0 0
0.5 0.125 0
0.625 0.125 0
0.625 0 0
0.75 0 0
0.625 0.125 0
0.75 0.125 0
0.5 0.125 0
0.625 0.125 0
0.5 0.25 0
0.625 0.25 0
0.625 0.125 0
0.75 0.125 0
0.625 0.25 0
0.75 0.25 0
0.75 0 0
0.875 0 0
0.75 0.125 0
0.875 0.125 0
0.875 0 0
1 0 0
0.875 0.125 0
1 0.125 0
0.75 0.125 0
0.875 0.125 0
0.75 0.25 0
0.875 0.25 0
0.875 0.125 0
1 0.125 0
0.875 0.25 0
1 0.25 0
0.5 0.25 0
0.625 0.25 0
0.5 0.375 0
0.625 0.375 0
0.625 0.25 0
0.75 0.25 0
0.625 0.375 0
0.75 0.375 0
0.5 0.375 0
0.625 0.375 0
0.5 0.5 0
0.625 0.5 0
0.625 0.375 0
0.75 0.375 0
0.625 0.5 0
0.75 0.5 0
0.25 0.5 0
0.375 0.5 0
0.25 0.625 0
0.375 0.625 0
0.375 0.5 0
0.5 0.5 0
0.375 0.625 0
0.5 0.625 0
0.25 0.625 0
0.375 0.625 0
0.25 0.75 0
0.375 0.75 0
0.375 0.625 0
0.5 0.625 0
0.375 0.75 0
0.5 0.75 0
0.5 0.5 0
0.625 0.5 0
0.5 0.625 0
0.625 0.625 0
0.625 0.5 0
0.75 0.5 0
0.625 0.625 0
0.75 0.625 0
0.5 0.625 0
0.625 0.625 0
0.5 0.75 0
0.625 0.75 0
0.625 0.625 0
0.75 0.625 0
0.625 0.75 0
0.75 0.75 0

CELLS 40 200
4	0	1	3	2
4	4	5	7	6
4	8	9	11	10
4	12	13	15	14
4	16	17	19	18
4	20	21	23	22
4	24	25	27	26
4	28	29	31	30
4	32	33	35	34
4	36	37	39	38
4	40	41	43	42
4	44	45	47	46
4	48	49	51	50
4	52	53	55	54
4	56	57	59	58
4	60	61	63	62
4	64	65	67	66
4	68	69	71	70
4	72	73	75	74
4	76	77	79	78
4	80	81	83	82
4	84	85	87	86
4	88	89	91	90
4	92	93	95	94
4	96	97	99	98
4	100	101	103	102
4	104	105	107	106
4	108	109	111	110
4	112	113	115	114
4	116	117	119	118
4	120	121	123	122
4	124	125	127	126
4	128	129	131	130
4	132	133	135	134
4	136	137	139	138
4	140	141	143	142
4	144	145	147	146
4	148	149	151	150
4	152	153	155	154
4	156	157	159	158

CELL_TYPES 40
 9 9 9 9 9 9 9 9 9 9 9 9 9 9 9 9 9 9 9 9 9 9 9 9 9 9 9 9 9 9 9 9 9 9 9 9 9 9 9 9
POINT_DATA 160
SCALARS U double 1
LOOKUP_TABLE default
0 0.62227 0 0.410798 0.62227 2.82714e-16 0.410798 2.20178e-16 0 0.410798 0 0.322095 0 0.322095 0 0.257027 0.322095 -0.499074 0.257027 -0.363491 0.410798 2.20178e-16 0.322095 1.71475e-16 -0.499074 0.322095 -0.363491 0.257027 0.322095 1.71475e-16 0.257027 1.33545e-16 0 0.912859 0 0.807991 0.912859 0.698672 0.807991 0.593173 0 0.807991 0 0.311135 0.807991 0.593173 0.311135 0.62227 0.698672 -0.378119 0.593173 -0.328637 -0.378119 -0.988072 -0.328637 -0.871554 0.593173 -0.328637 0.62227 -0.293098 -0.328637 -0.871554 -0.293098 -0.769562 0.62227 -0.293098 0.516534 -0.255848 -0.293098 -0.769562 -0.255848 -0.679486 0.516534 -0.255848 0.410798 -0.22828 -0.255848 -0.679486 -0.22828 -0.599309 -0.988072 -0.378119 -0.871554 -0.328637 -0.378119 0.698672 -0.328637 0.593173 -0.871554 -0.328637 -0.769562 -0.293098 -0.328637 0.593173 -0.293098 0.62227 0.698672 0.912859 0.593173 0.807991 0.912859 3.63012e-16 0.807991 3.20357e-16 0.593173 0.807991 0.62227 0.311135 0.807991 3.20357e-16 0.311135 2.82714e-16 -0.769562 -0.293098 -0.679486 -0.255848 -0.293098 0.62227 -0.255848 0.516534 -0.679486 -0.255848 -0.599309 -0.22828 -0.255848 0.516534 -0.22828 0.410798 0.410798 -0.22828 0.366446 -0.204942 -0.22828 -0.599309 -0.204942 -0.517229 0.366446 -0.204942 0.322095 -0.0884897 -0.204942 -0.517229 -0.0884897 -0.499074 -0.599309 -0.22828 -0.517229 -0.204942 -0.22828 0.410798 -0.204942 0.366446 -0.517229 -0.204942 -0.499074 -0.0884897 -0.204942 0.366446 -0.0884897 0.322095 
