# vtk DataFile Version 3.0
#This file was generated by the deal.II library on 2018/12/4 at 0:47:16
ASCII
DATASET UNSTRUCTURED_GRID

POINTS 22816 double
0.3125 0.5625 0
0.375 0.5625 0
0.3125 0.625 0
0.375 0.625 0
0.625 0.5625 0
0.6875 0.5625 0
0.625 0.625 0
0.6875 0.625 0
0.3125 0.8125 0
0.375 0.8125 0
0.3125 0.875 0
0.375 0.875 0
0.3125 0.875 0
0.375 0.875 0
0.3125 0.9375 0
0.375 0.9375 0
0.625 0.8125 0
0.6875 0.8125 0
0.625 0.875 0
0.6875 0.875 0
0.625 0.875 0
0.6875 0.875 0
0.625 0.9375 0
0.6875 0.9375 0
0.3125 0 0
0.34375 0 0
0.3125 0.03125 0
0.34375 0.03125 0
0.34375 0 0
0.375 0 0
0.34375 0.03125 0
0.375 0.03125 0
0.3125 0.03125 0
0.34375 0.03125 0
0.3125 0.0625 0
0.34375 0.0625 0
0.28125 0.0625 0
0.3125 0.0625 0
0.28125 0.09375 0
0.3125 0.09375 0
0.28125 0.09375 0
0.3125 0.09375 0
0.28125 0.125 0
0.3125 0.125 0
0.375 0.34375 0
0.40625 0.34375 0
0.375 0.375 0
0.40625 0.375 0
0 0.0625 0
0.03125 0.0625 0
0 0.09375 0
0.03125 0.09375 0
0 0.09375 0
0.03125 0.09375 0
0 0.125 0
0.03125 0.125 0
0.6875 0.0625 0
0.71875 0.0625 0
0.6875 0.09375 0
0.71875 0.09375 0
0.6875 0.09375 0
0.71875 0.09375 0
0.6875 0.125 0
0.71875 0.125 0
0.3125 0.0625 0
0.34375 0.0625 0
0.3125 0.09375 0
0.34375 0.09375 0
0.3125 0.09375 0
0.34375 0.09375 0
0.3125 0.125 0
0.34375 0.125 0
0.59375 0.3125 0
0.625 0.3125 0
0.59375 0.34375 0
0.625 0.34375 0
0.59375 0.34375 0
0.625 0.34375 0
0.59375 0.375 0
0.625 0.375 0
0.25 0.125 0
0.28125 0.125 0
0.25 0.15625 0
0.28125 0.15625 0
0.28125 0.125 0
0.3125 0.125 0
0.28125 0.15625 0
0.3125 0.15625 0
0.28125 0.15625 0
0.3125 0.15625 0
0.28125 0.1875 0
0.3125 0.1875 0
0.28125 0.1875 0
0.3125 0.1875 0
0.28125 0.21875 0
0.3125 0.21875 0
0.28125 0.21875 0
0.3125 0.21875 0
0.28125 0.25 0
0.3125 0.25 0
0.625 0 0
0.65625 0 0
0.625 0.03125 0
0.65625 0.03125 0
0.65625 0 0
0.6875 0 0
0.65625 0.03125 0
0.6875 0.03125 0
0.65625 0.03125 0
0.6875 0.03125 0
0.65625 0.0625 0
0.6875 0.0625 0
0.28125 0.25 0
0.3125 0.25 0
0.28125 0.28125 0
0.3125 0.28125 0
0.28125 0.28125 0
0.3125 0.28125 0
0.28125 0.3125 0
0.3125 0.3125 0
0.28125 0.3125 0
0.3125 0.3125 0
0.28125 0.34375 0
0.3125 0.34375 0
0.28125 0.34375 0
0.3125 0.34375 0
0.28125 0.375 0
0.3125 0.375 0
0.6875 0.125 0
0.71875 0.125 0
0.6875 0.15625 0
0.71875 0.15625 0
0.71875 0.125 0
0.75 0.125 0
0.71875 0.15625 0
0.75 0.15625 0
0.6875 0.15625 0
0.71875 0.15625 0
0.6875 0.1875 0
0.71875 0.1875 0
0.6875 0.1875 0
0.71875 0.1875 0
0.6875 0.21875 0
0.71875 0.21875 0
0.6875 0.21875 0
0.71875 0.21875 0
0.6875 0.25 0
0.71875 0.25 0
0.96875 0.0625 0
1 0.0625 0
0.96875 0.09375 0
1 0.09375 0
0.96875 0.09375 0
1 0.09375 0
0.96875 0.125 0
1 0.125 0
0.6875 0.25 0
0.71875 0.25 0
0.6875 0.28125 0
0.71875 0.28125 0
0.6875 0.28125 0
0.71875 0.28125 0
0.6875 0.3125 0
0.71875 0.3125 0
0.6875 0.3125 0
0.71875 0.3125 0
0.6875 0.34375 0
0.71875 0.34375 0
0.6875 0.34375 0
0.71875 0.34375 0
0.6875 0.375 0
0.71875 0.375 0
0.28125 0.375 0
0.3125 0.375 0
0.28125 0.40625 0
0.3125 0.40625 0
0.28125 0.40625 0
0.3125 0.40625 0
0.28125 0.4375 0
0.3125 0.4375 0
0.65625 0.0625 0
0.6875 0.0625 0
0.65625 0.09375 0
0.6875 0.09375 0
0.65625 0.09375 0
0.6875 0.09375 0
0.65625 0.125 0
0.6875 0.125 0
0.375 0.5 0
0.40625 0.5 0
0.375 0.53125 0
0.40625 0.53125 0
0.375 0.53125 0
0.40625 0.53125 0
0.375 0.5625 0
0.40625 0.5625 0
0.375 0.5625 0
0.40625 0.5625 0
0.375 0.59375 0
0.40625 0.59375 0
0.375 0.59375 0
0.40625 0.59375 0
0.375 0.625 0
0.40625 0.625 0
0.375 0.375 0
0.40625 0.375 0
0.375 0.40625 0
0.40625 0.40625 0
0.59375 0.375 0
0.625 0.375 0
0.59375 0.40625 0
0.625 0.40625 0
0.6875 0.375 0
0.71875 0.375 0
0.6875 0.40625 0
0.71875 0.40625 0
0.6875 0.40625 0
0.71875 0.40625 0
0.6875 0.4375 0
0.71875 0.4375 0
0 0.3125 0
0.03125 0.3125 0
0 0.34375 0
0.03125 0.34375 0
0 0.34375 0
0.03125 0.34375 0
0 0.375 0
0.03125 0.375 0
0.03125 0.34375 0
0.0625 0.34375 0
0.03125 0.375 0
0.0625 0.375 0
0.59375 0.5 0
0.625 0.5 0
0.59375 0.53125 0
0.625 0.53125 0
0.59375 0.53125 0
0.625 0.53125 0
0.59375 0.5625 0
0.625 0.5625 0
0.59375 0.5625 0
0.625 0.5625 0
0.59375 0.59375 0
0.625 0.59375 0
0.59375 0.59375 0
0.625 0.59375 0
0.59375 0.625 0
0.625 0.625 0
0.3125 0.125 0
0.34375 0.125 0
0.3125 0.15625 0
0.34375 0.15625 0
0.3125 0.15625 0
0.34375 0.15625 0
0.3125 0.1875 0
0.34375 0.1875 0
0.96875 0.3125 0
1 0.3125 0
0.96875 0.34375 0
1 0.34375 0
0.9375 0.34375 0
0.96875 0.34375 0
0.9375 0.375 0
0.96875 0.375 0
0.96875 0.34375 0
1 0.34375 0
0.96875 0.375 0
1 0.375 0
0.65625 0.125 0
0.6875 0.125 0
0.65625 0.15625 0
0.6875 0.15625 0
0.65625 0.15625 0
0.6875 0.15625 0
0.65625 0.1875 0
0.6875 0.1875 0
0.65625 0.1875 0
0.6875 0.1875 0
0.65625 0.21875 0
0.6875 0.21875 0
0.65625 0.21875 0
0.6875 0.21875 0
0.65625 0.25 0
0.6875 0.25 0
0.65625 0.25 0
0.6875 0.25 0
0.65625 0.28125 0
0.6875 0.28125 0
0.625 0.28125 0
0.65625 0.28125 0
0.625 0.3125 0
0.65625 0.3125 0
0.65625 0.28125 0
0.6875 0.28125 0
0.65625 0.3125 0
0.6875 0.3125 0
0 0.625 0
0.03125 0.625 0
0 0.65625 0
0.03125 0.65625 0
0.03125 0.625 0
0.0625 0.625 0
0.03125 0.65625 0
0.0625 0.65625 0
0 0.65625 0
0.03125 0.65625 0
0 0.6875 0
0.03125 0.6875 0
0.03125 0.65625 0
0.0625 0.65625 0
0.03125 0.6875 0
0.0625 0.6875 0
0 0.1875 0
0.03125 0.1875 0
0 0.21875 0
0.03125 0.21875 0
0.03125 0.1875 0
0.0625 0.1875 0
0.03125 0.21875 0
0.0625 0.21875 0
0 0.21875 0
0.03125 0.21875 0
0 0.25 0
0.03125 0.25 0
0.03125 0.21875 0
0.0625 0.21875 0
0.03125 0.25 0
0.0625 0.25 0
0.0625 0.71875 0
0.09375 0.71875 0
0.0625 0.75 0
0.09375 0.75 0
0.96875 0.625 0
1 0.625 0
0.96875 0.65625 0
1 0.65625 0
0.9375 0.65625 0
0.96875 0.65625 0
0.9375 0.6875 0
0.96875 0.6875 0
0.96875 0.65625 0
1 0.65625 0
0.96875 0.6875 0
1 0.6875 0
0.90625 0.71875 0
0.9375 0.71875 0
0.90625 0.75 0
0.9375 0.75 0
0.9375 0.1875 0
0.96875 0.1875 0
0.9375 0.21875 0
0.96875 0.21875 0
0.96875 0.1875 0
1 0.1875 0
0.96875 0.21875 0
1 0.21875 0
0.9375 0.21875 0
0.96875 0.21875 0
0.9375 0.25 0
0.96875 0.25 0
0.96875 0.21875 0
1 0.21875 0
0.96875 0.25 0
1 0.25 0
0 0.4375 0
0.03125 0.4375 0
0 0.46875 0
0.03125 0.46875 0
0.03125 0.4375 0
0.0625 0.4375 0
0.03125 0.46875 0
0.0625 0.46875 0
0 0.46875 0
0.03125 0.46875 0
0 0.5 0
0.03125 0.5 0
0.9375 0.4375 0
0.96875 0.4375 0
0.9375 0.46875 0
0.96875 0.46875 0
0.96875 0.4375 0
1 0.4375 0
0.96875 0.46875 0
1 0.46875 0
0.96875 0.46875 0
1 0.46875 0
0.96875 0.5 0
1 0.5 0
0 0.5625 0
0.03125 0.5625 0
0 0.59375 0
0.03125 0.59375 0
0 0.59375 0
0.03125 0.59375 0
0 0.625 0
0.03125 0.625 0
0.96875 0.5625 0
1 0.5625 0
0.96875 0.59375 0
1 0.59375 0
0.96875 0.59375 0
1 0.59375 0
0.96875 0.625 0
1 0.625 0
0.6875 0.875 0
0.71875 0.875 0
0.6875 0.90625 0
0.71875 0.90625 0
0.71875 0.875 0
0.75 0.875 0
0.71875 0.90625 0
0.75 0.90625 0
0.6875 0.90625 0
0.71875 0.90625 0
0.6875 0.9375 0
0.71875 0.9375 0
0.71875 0.90625 0
0.75 0.90625 0
0.71875 0.9375 0
0.75 0.9375 0
0 0.25 0
0.03125 0.25 0
0 0.28125 0
0.03125 0.28125 0
0 0.28125 0
0.03125 0.28125 0
0 0.3125 0
0.03125 0.3125 0
0.3125 0.1875 0
0.34375 0.1875 0
0.3125 0.21875 0
0.34375 0.21875 0
0.3125 0.21875 0
0.34375 0.21875 0
0.3125 0.25 0
0.34375 0.25 0
0.0625 0.875 0
0.09375 0.875 0
0.0625 0.90625 0
0.09375 0.90625 0
0.0625 0.90625 0
0.09375 0.90625 0
0.0625 0.9375 0
0.09375 0.9375 0
0.96875 0.25 0
1 0.25 0
0.96875 0.28125 0
1 0.28125 0
0.96875 0.28125 0
1 0.28125 0
0.96875 0.3125 0
1 0.3125 0
0.0625 0.9375 0
0.09375 0.9375 0
0.0625 0.96875 0
0.09375 0.96875 0
0.0625 0.96875 0
0.09375 0.96875 0
0.0625 1 0
0.09375 1 0
0.09375 0.96875 0
0.125 0.96875 0
0.09375 1 0
0.125 1 0
0.75 0.90625 0
0.78125 0.90625 0
0.75 0.9375 0
0.78125 0.9375 0
0.75 0.9375 0
0.78125 0.9375 0
0.75 0.96875 0
0.78125 0.96875 0
0.75 0.96875 0
0.78125 0.96875 0
0.75 1 0
0.78125 1 0
0.90625 0.875 0
0.9375 0.875 0
0.90625 0.90625 0
0.9375 0.90625 0
0.90625 0.90625 0
0.9375 0.90625 0
0.90625 0.9375 0
0.9375 0.9375 0
0.3125 0.25 0
0.34375 0.25 0
0.3125 0.28125 0
0.34375 0.28125 0
0.3125 0.28125 0
0.34375 0.28125 0
0.3125 0.3125 0
0.34375 0.3125 0
0.90625 0.9375 0
0.9375 0.9375 0
0.90625 0.96875 0
0.9375 0.96875 0
0.875 0.96875 0
0.90625 0.96875 0
0.875 1 0
0.90625 1 0
0.90625 0.96875 0
0.9375 0.96875 0
0.90625 1 0
0.9375 1 0
0.3125 0.3125 0
0.34375 0.3125 0
0.3125 0.34375 0
0.34375 0.34375 0
0.34375 0.3125 0
0.375 0.3125 0
0.34375 0.34375 0
0.375 0.34375 0
0.3125 0.34375 0
0.34375 0.34375 0
0.3125 0.375 0
0.34375 0.375 0
0.34375 0.34375 0
0.375 0.34375 0
0.34375 0.375 0
0.375 0.375 0
0.625 0.3125 0
0.65625 0.3125 0
0.625 0.34375 0
0.65625 0.34375 0
0.65625 0.3125 0
0.6875 0.3125 0
0.65625 0.34375 0
0.6875 0.34375 0
0.625 0.34375 0
0.65625 0.34375 0
0.625 0.375 0
0.65625 0.375 0
0.65625 0.34375 0
0.6875 0.34375 0
0.65625 0.375 0
0.6875 0.375 0
0.3125 0.375 0
0.34375 0.375 0
0.3125 0.40625 0
0.34375 0.40625 0
0.3125 0.40625 0
0.34375 0.40625 0
0.3125 0.4375 0
0.34375 0.4375 0
0.28125 0.4375 0
0.3125 0.4375 0
0.28125 0.46875 0
0.3125 0.46875 0
0.28125 0.46875 0
0.3125 0.46875 0
0.28125 0.5 0
0.3125 0.5 0
0.3125 0.4375 0
0.34375 0.4375 0
0.3125 0.46875 0
0.34375 0.46875 0
0.3125 0.46875 0
0.34375 0.46875 0
0.3125 0.5 0
0.34375 0.5 0
0.3125 0.5 0
0.34375 0.5 0
0.3125 0.53125 0
0.34375 0.53125 0
0.3125 0.53125 0
0.34375 0.53125 0
0.3125 0.5625 0
0.34375 0.5625 0
0.34375 0.53125 0
0.375 0.53125 0
0.34375 0.5625 0
0.375 0.5625 0
0.25 0.5625 0
0.28125 0.5625 0
0.25 0.59375 0
0.28125 0.59375 0
0.28125 0.5625 0
0.3125 0.5625 0
0.28125 0.59375 0
0.3125 0.59375 0
0.25 0.59375 0
0.28125 0.59375 0
0.25 0.625 0
0.28125 0.625 0
0.28125 0.59375 0
0.3125 0.59375 0
0.28125 0.625 0
0.3125 0.625 0
0.375 0.625 0
0.40625 0.625 0
0.375 0.65625 0
0.40625 0.65625 0
0.375 0.65625 0
0.40625 0.65625 0
0.375 0.6875 0
0.40625 0.6875 0
0.375 0.6875 0
0.40625 0.6875 0
0.375 0.71875 0
0.40625 0.71875 0
0.375 0.71875 0
0.40625 0.71875 0
0.375 0.75 0
0.40625 0.75 0
0 0.75 0
0.03125 0.75 0
0 0.78125 0
0.03125 0.78125 0
0.03125 0.75 0
0.0625 0.75 0
0.03125 0.78125 0
0.0625 0.78125 0
0 0.78125 0
0.03125 0.78125 0
0 0.8125 0
0.03125 0.8125 0
0.03125 0.78125 0
0.0625 0.78125 0
0.03125 0.8125 0
0.0625 0.8125 0
0.0625 0.75 0
0.09375 0.75 0
[...]
POINT_DATA 22816
SCALARS U double 1
LOOKUP_TABLE default
0.0846532 -0.187597 0.0795086 -0.176216 -0.187594 0.084658 -0.176224 0.0794982 0.0672623 -0.144728 0.0643226 -0.13484 0.0643226 -0.13484 0.0616194 -0.125679 -0.144746 0.0672308 -0.134902 0.0643095 -0.134902 0.0643095 -0.125814 0.0616649 0.161655 -0.0812184 0.155787 -0.0793722 -0.0812184 -0.317097 -0.0793722 -0.307976 0.155787 -0.0793722 0.150862 -0.0770777 0.365907 0.150862 0.353368 0.145548 0.353368 0.145548 0.342703 0.140403 -0.230681 -0.378477 -0.224053 -0.366881 0 0.225665 0 0.218389 0 0.218389 0 0.211587 0.150872 0.365911 0.145559 0.353372 0.145559 0.353372 0.14041 0.342705 0.150862 -0.0770777 0.145548 -0.075377 0.145548 -0.075377 0.140403 -0.0737084 -0.3898 -0.23736 -0.378073 -0.230495 -0.378073 -0.230495 -0.3668 -0.223952 0.515111 0.342703 0.498464 0.33137 0.342703 0.140403 0.33137 0.135355 0.33137 0.135355 0.319452 0.130374 0.319452 0.130374 0.309121 0.125588 0.309121 0.125588 0.299032 0.121112 -0.317097 -0.0812184 -0.307959 -0.0793606 -0.0812184 0.161655 -0.0793606 0.155793 -0.0793606 0.155793 -0.0770564 0.150872 0.299032 0.121112 0.289224 0.116741 0.289224 0.116741 0.279694 0.112498 0.279694 0.112498 0.270458 0.108388 0.270458 0.108388 0.261607 0.10454 0.14041 0.342705 0.135357 0.331369 0.342705 0.515112 0.331369 0.498465 0.135357 0.331369 0.130377 0.319451 0.130377 0.319451 0.125602 0.309118 0.125602 0.309118 0.121083 0.299026 0.225666 2.85984e-16 0.218391 2.77185e-16 0.218391 2.77185e-16 0.211589 2.68657e-16 0.121083 0.299026 0.116711 0.289215 0.116711 0.289215 0.112458 0.279693 0.112458 0.279693 0.108399 0.270464 0.108399 0.270464 0.104557 0.261619 0.261607 0.10454 0.253089 0.100884 0.253089 0.100884 0.244872 0.0974098 -0.0770564 0.150872 -0.0753509 0.145559 -0.0753509 0.145559 -0.0736869 0.14041 -0.198938 -0.325197 -0.192954 -0.315241 -0.192954 -0.315241 -0.187597 -0.305773 -0.187597 -0.305773 -0.181907 -0.29648 -0.181907 -0.29648 -0.176216 -0.287227 -0.224053 -0.366881 -0.217453 -0.356124 -0.3668 -0.223952 -0.356079 -0.217408 0.104557 0.261619 0.100906 0.2531 0.100906 0.2531 0.0974282 0.244882 0 0.174277 0 0.169376 0 0.169376 0 0.163929 0.169376 0.324072 0.163929 0.313595 -0.325189 -0.198927 -0.315237 -0.192947 -0.315237 -0.192947 -0.305772 -0.187594 -0.305772 -0.187594 -0.296483 -0.181909 -0.296483 -0.181909 -0.287234 -0.176224 0.140403 -0.0737084 0.135355 -0.0721173 0.135355 -0.0721173 0.130374 -0.0705909 0.174287 2.22724e-16 0.169389 2.15872e-16 0.324097 0.169389 0.313629 0.163947 0.169389 2.15872e-16 0.163947 2.0923e-16 -0.0736869 0.14041 -0.0721067 0.135357 -0.0721067 0.135357 -0.0705802 0.130377 -0.0705802 0.130377 -0.0690544 0.125602 -0.0690544 0.125602 -0.0674309 0.121083 -0.0674309 0.121083 -0.0663442 0.116711 -0.243725 -0.0663442 -0.23736 -0.0648937 -0.0663442 0.116711 -0.0648937 0.112458 0 0.127436 0 0.123384 0.127436 0.243927 0.123384 0.235687 0 0.123384 0 0.119586 0.123384 0.235687 0.119586 0.228698 0 0.198965 0 0.192445 0.198965 0.380345 0.192445 0.368072 0 0.192445 0 0.186414 0.192445 0.368072 0.186414 0.356638 0.221835 0.308735 0.215299 0.299169 0.126968 1.62949e-16 0.123461 1.57935e-16 0.236128 0.123461 0.228767 0.119658 0.123461 1.57935e-16 0.119658 1.53076e-16 0.308752 0.22186 0.299168 0.215301 0.380352 0.198969 0.368081 0.192449 0.198969 2.5238e-16 0.192449 2.44615e-16 0.368081 0.192449 0.356649 0.18642 0.192449 2.44615e-16 0.18642 2.37089e-16 0 0.153744 0 0.148875 0.153744 0.294126 0.148875 0.285098 0 0.148875 0 0.144307 0.294187 0.153774 0.285177 0.148925 0.153774 1.96554e-16 0.148925 1.90506e-16 0.148925 1.90506e-16 0.144305 1.84645e-16 0 0.135768 0 0.131018 0 0.131018 0 0.127436 0.135653 1.73458e-16 0.131021 1.68121e-16 0.131021 1.68121e-16 0.126968 1.62949e-16 0.0643095 0.159581 0.0629872 0.155411 0.159581 0.240552 0.155411 0.23443 0.0629872 0.155411 0.0616649 0.151704 0.155411 0.23443 0.151704 0.227906 0 0.186414 0 0.179939 0 0.179939 0 0.174277 0.130374 -0.0705909 0.125588 -0.069086 0.125588 -0.069086 0.121112 -0.0675763 0.190584 0.264858 0.184602 0.256983 0.184602 0.256983 0.179259 0.249295 0.18642 2.37089e-16 0.179946 2.29794e-16 0.179946 2.29794e-16 0.174287 2.22724e-16 0.179259 0.249295 0.174413 0.242705 0.174413 0.242705 0.169355 0.235637 0.242705 0.29012 0.235637 0.281626 0.23443 0.292952 0.227906 0.28436 0.227906 0.28436 0.221284 0.276403 0.221284 0.276403 0.215548 0.268836 0.264854 0.19058 0.256984 0.184601 0.256984 0.184601 0.249299 0.179258 0.121112 -0.0675763 0.116741 -0.0659844 0.116741 -0.0659844 0.112498 -0.0649292 0.249299 0.179258 0.242708 0.174413 0.290129 0.242708 0.281626 0.235637 0.242708 0.174413 0.235637 0.169355 0.112498 -0.0649292 0.108388 -0.0635186 -0.0649292 -0.23687 -0.0635186 -0.230681 0.108388 -0.0635186 0.10454 -0.0622146 -0.0635186 -0.230681 -0.0622146 -0.224053 -0.23736 -0.0648937 -0.230495 -0.0635323 -0.0648937 0.112458 -0.0635323 0.108399 -0.230495 -0.0635323 -0.223952 -0.0621656 -0.0635323 0.108399 -0.0621656 0.104557 0.10454 -0.0622146 0.100884 -0.0603875 0.100884 -0.0603875 0.0974098 -0.0589039 0.244872 0.0974098 0.236922 0.0940763 0.236922 0.0940763 0.229482 0.0909094 0.0974098 -0.0589039 0.0940763 -0.0574244 0.0940763 -0.0574244 0.0909094 -0.0559629 0.0909094 -0.0559629 0.087574 -0.0546557 0.087574 -0.0546557 0.0846532 -0.0514718 -0.0546557 -0.192954 -0.0514718 -0.187597 0.326299 0.215609 0.316779 0.208601 0.215609 0.0846532 0.208601 0.0820809 0.316779 0.208601 0.306827 0.202557 0.208601 0.0820809 0.202557 0.0795086 -0.176216 -0.287227 -0.170197 -0.278153 -0.170197 -0.278153 -0.1649 -0.269321 -0.1649 -0.269321 -0.159675 -0.260609 -0.159675 -0.260609 -0.154508 -0.252977 0 0.112588 0 0.109094 0.112588 0.215299 0.109094 0.208684 0 0.109094 0 0.105792 0.109094 0.208684 0.105792 0.202391 0.215299 0.299169 0.208684 0.290119 0.208684 0.290119 0.202391 0.281428 0 0.105792 0 0.102644 0 0.102644 0 0.0996699 0.102644 0.196354 0.0996699 0.190584 0.202391 0.281428 0.196354 0.273029 0.196354 0.273029 0.190584 0.264858 -0.0621656 0.104557 -0.0603527 0.100906 -0.0603527 0.100906 -0.0588807 0.0974282 -0.0588807 0.0974282 -0.0574069 0.0940935 -0.0574069 0.0940935 -0.055949 0.0909256 0.0974282 0.244882 0.0940935 0.236936 0.0940935 0.236936 0.0909256 0.229501 0 0.163929 0 0.15872 0.163929 0.313595 0.15872 0.303673 0 0.15872 0 0.153744 0.15872 0.303673 0.153744 0.294126 -0.055949 0.0909256 -0.0546461 0.0875863 -0.192947 -0.0546461 -0.187594 -0.0514681 -0.0546461 0.0875863 -0.0514681 0.084658 0.084658 0.215612 0.0820781 0.208594 0.215612 0.32629 0.208594 0.316762 0.0820781 0.208594 0.0794982 0.202544 0.208594 0.316762 0.202544 0.306807 -0.287234 -0.176224 -0.278163 -0.170209 -0.278163 -0.170209 -0.269333 -0.164915 -0.269333 -0.164915 -0.260623 -0.159692 -0.260623 -0.159692 -0.252991 -0.154526 0.299168 0.215301 0.290112 0.208679 0.290112 0.208679 0.281419 0.202385 0.215301 0.11259 0.208679 0.109092 0.11259 1.43802e-16 0.109092 1.39377e-16 0.208679 0.109092 0.202385 0.105789 0.109092 1.39377e-16 0.105789 1.35089e-16 0.281419 0.202385 0.273022 0.196348 0.273022 0.196348 0.264854 0.19058 0.105789 1.35089e-16 0.102641 1.30933e-16 0.196348 0.102641 0.19058 0.0996676 0.102641 1.30933e-16 0.0996676 1.26905e-16 0.313629 0.163947 0.303721 0.158743 0.163947 2.0923e-16 0.158743 2.02793e-16 0.303721 0.158743 0.294187 0.153774 0.158743 2.02793e-16 0.153774 1.96554e-16 0 0.144307 0 0.139954 0.144307 0.276007 0.139954 0.267989 0 0.139954 0 0.135768 0.139954 0.267989 0.135768 0.259645 0.267989 0.372732 0.259645 0.36078 0.259645 0.36078 0.251045 0.349586 0.251045 0.349586 0.243927 0.339054 0.396985 0.316779 0.384215 0.306827 0.384215 0.306827 0.372266 0.296748 0.372266 0.296748 0.360801 0.287859 0.360801 0.287859 0.349961 0.279111 0.349961 0.279111 0.339846 0.271456 0.271456 0.179094 0.262713 0.1739 0.262713 0.1739 0.255213 0.168778 0.1739 0.0694787 0.168778 0.0672623 0.070894 -0.0433944 0.0694787 -0.0415978 -0.0433944 -0.154508 -0.0415978 -0.149364 0.0694787 -0.0415978 0.0672623 -0.0387327 -0.0415978 -0.149364 -0.0387327 -0.144728 0.255213 0.168778 0.247842 0.164034 0.168778 0.0672623 0.164034 0.0657925 0.247842 0.164034 0.240796 0.159575 0.164034 0.0657925 0.159575 0.0643226 -0.154508 -0.252977 -0.149364 -0.244823 -0.252977 -0.32959 -0.244823 -0.31963 -0.149364 -0.244823 -0.144728 -0.236964 -0.244823 -0.31963 -0.236964 -0.309368 -0.31963 -0.367666 -0.309368 -0.355505 -0.367666 -0.383915 -0.355505 -0.371376 -0.144728 -0.236964 -0.139784 -0.229233 -0.236964 -0.309368 -0.229233 -0.299324 -0.139784 -0.229233 -0.13484 -0.221665 -0.229233 -0.299324 -0.221665 -0.289593 -0.309368 -0.355505 -0.299324 -0.343975 -0.355505 -0.371376 -0.343975 -0.359305 -0.299324 -0.343975 -0.289593 -0.33285 -0.343975 -0.359305 -0.33285 -0.347705 0.240796 0.159575 0.234093 0.15536 0.159575 0.0643226 0.15536 0.062971 0.234093 0.15536 0.2278 0.151577 0.15536 0.062971 0.151577 0.0616194 0.0616194 -0.03203 0.0605719 -0.0314174 -0.03203 -0.125679 -0.0314174 -0.12088 0.0605719 -0.0314174 0.0594694 -0.0298786 -0.0314174 -0.12088 -0.0298786 -0.116654 -0.13484 -0.221665 -0.13026 -0.214305 -0.221665 -0.289593 -0.214305 -0.280152 -0.13026 -0.214305 -0.125679 -0.207125 -0.214305 -0.280152 -0.207125 -0.270987 -0.289593 -0.33285 -0.280152 -0.322085 -0.33285 -0.347705 -0.322085 -0.336485 -0.280152 -0.322085 -0.270987 -0.31165 -0.322085 -0.336485 -0.31165 -0.325609 -0.125679 -0.207125 -0.12088 -0.200148 -0.207125 -0.270987 -0.200148 -0.262091 -0.12088 -0.200148 -0.116654 -0.193382 -0.200148 -0.262091 -0.193382 -0.253457 -0.270987 -0.31165 -0.262091 -0.301526 -0.31165 -0.325609 -0.301526 -0.31506 -0.262091 -0.301526 -0.253457 -0.291704 -0.301526 -0.31506 -0.291704 -0.30483 0.316762 0.396953 0.306807 0.384184 0.276333 0.144305 0.267628 0.139921 0.144305 1.84645e-16 0.139921 1.78964e-16 0.267628 0.139921 0.259531 0.135653 0.139921 1.78964e-16 0.135653 1.73458e-16 0.306807 0.384184 0.296727 0.372242 0.296727 0.372242 0.287837 0.360782 0.287837 0.360782 0.279088 0.349941 0.279088 0.349941 0.27143 0.339823 -0.383915 -0.367671 -0.371376 -0.355511 -0.367671 -0.319639 -0.355511 -0.30938 -0.3296 -0.252991 -0.319639 -0.244837 -0.252991 -0.154526 -0.244837 -0.149382 -0.319639 -0.244837 -0.30938 -0.236982 -0.244837 -0.149382 -0.236982 -0.144746 -0.371376 -0.355511 -0.359305 -0.343987 -0.355511 -0.30938 -0.343987 -0.299346 -0.359305 -0.343987 -0.347705 -0.332878 -0.343987 -0.299346 -0.332878 -0.289644 -0.30938 -0.236982 -0.299346 -0.229263 -0.236982 -0.144746 -0.229263 -0.139824 -0.299346 -0.229263 -0.289644 -0.221728 -0.229263 -0.139824 -0.221728 -0.134902 -0.154526 -0.0434166 -0.149382 -0.041621 -0.0434166 0.0708687 -0.041621 0.0694511 -0.149382 -0.041621 -0.144746 -0.0387575 -0.041621 0.0694511 -0.0387575 0.0672308 0.179067 0.27143 0.173869 0.262682 0.0694511 0.173869 0.0672308 0.168742 0.173869 0.262682 0.168742 0.25517 0.0672308 0.168742 0.0657702 0.163981 0.168742 0.25517 0.163981 0.247778 0.0657702 0.163981 0.0643095 0.159581 0.163981 0.247778 0.159581 0.240552 -0.347705 -0.332878 -0.336485 -0.322132 -0.332878 -0.289644 -0.322132 -0.280277 -0.336485 -0.322132 -0.325609 -0.311658 -0.322132 -0.280277 -0.311658 -0.27119 -0.289644 -0.221728 -0.280277 -0.214452 -0.221728 -0.134902 -0.214452 -0.130358 -0.280277 -0.214452 -0.27119 -0.207656 -0.214452 -0.130358 -0.207656 -0.125814 -0.325609 -0.311658 -0.31506 -0.301517 -0.311658 -0.27119 -0.301517 -0.26182 -0.31506 -0.301517 -0.30483 -0.291704 -0.301517 -0.26182 -0.291704 -0.253457 0.0795086 -0.0483539 0.0772661 -0.048241 -0.0483539 -0.176216 -0.048241 -0.170197 0.0772661 -0.048241 0.0749374 -0.0467464 -0.048241 -0.170197 -0.0467464 -0.1649 0.0749374 -0.0467464 0.0728451 -0.0451298 -0.0467464 -0.1649 -0.0451298 -0.159675 0.0728451 -0.0451298 0.070894 -0.0433944 -0.0451298 -0.159675 -0.0433944 -0.154508 -0.176224 -0.0483628 -0.170209 -0.0482549 -0.0483628 0.0794982 -0.0482549 0.0772502 -0.170209 -0.0482549 -0.164915 -0.0467642 -0.0482549 0.0772502 -0.0467642 0.0749176 -0.164915 -0.0467642 -0.159692 -0.0451504 -0.0467642 0.0749176 -0.0451504 0.0728221 -0.159692 -0.0451504 -0.154526 -0.0434166 -0.0451504 0.0728221 -0.0434166 0.0708687 0 0.119586 0 0.115565 0 0.115565 0 0.112588 0.119658 1.53076e-16 0.115581 1.48366e-16 0.115581 1.48366e-16 0.11259 1.43802e-16 -0.125814 -0.0320747 -0.120677 -0.0314062 -0.0320747 0.0616649 -0.0314062 0.0605954 -0.120677 -0.0314062 -0.116654 -0.0298786 -0.0314062 0.0605954 -0.0298786 0.0594694 0 0.0996699 0 0.0964046 0 0.0964046 0 0.0935982 0 0.0935982 0 0.0911968 0 0.0911968 0 0.0884876 0.0911968 0.174413 0.0884876 0.169355 0.0996676 1.26905e-16 0.0964031 1.23e-16 0.0964031 1.23e-16 0.0935974 1.19216e-16 0.0935974 1.19216e-16 0.0911964 1.15548e-16 0.174413 0.0911964 0.169355 0.0884876 0.0911964 1.15548e-16 0.0884876 1.11993e-16 0.211587 0.311467 0.207878 0.306436 0.311467 0.40473 0.306436 0.398241 0.207878 0.306436 0.204582 0.301429 0.306436 0.398241 0.301429 0.391884 0.76554 0.803782 0.753403 0.791075 0.803782 0.824625 0.791075 0.811547 0.753403 0.791075 0.741488 0.778782 0.791075 0.811547 0.778782 0.798647 0.824625 0.827617 0.811547 0.814402 0.827617 0.812693 0.814402 0.799644 0.811547 0.814402 0.798647 0.801341 0.814402 0.799644 0.801341 0.786804 0.798647 0.801341 0.785506 0.788598 0.801341 0.786804 0.788598 0.774119 0.785506 0.788598 0.773203 0.776317 0.788598 0.774119 0.776317 0.762196 0.695275 0.730175 0.684119 0.718302 0.730175 0.748824 0.718302 0.736831 0.684119 0.718302 0.673192 0.706801 0.718302 0.736831 0.706801 0.72506 0.474003 0.545673 0.466356 0.536954 0.466356 0.536954 0.459301 0.528481 0.673192 0.706801 0.662475 0.695532 0.706801 0.72506 0.695532 0.713493 0.662475 0.695532 0.651959 0.684465 0.695532 0.713493 0.684465 0.702121 0.651959 0.684465 0.641626 0.67359 0.684465 0.702121 0.67359 0.690939 0.641626 0.67359 0.631464 0.662905 0.67359 0.690939 0.662905 0.679946 0.380345 0.459301 0.374208 0.452035 0.459301 0.528481 0.452035 0.520141 0.374208 0.452035 0.368072 0.444835 0.452035 0.520141 0.444835 0.511862 0.368072 0.444835 0.362355 0.437748 0.444835 0.511862 0.437748 0.503679 0.362355 0.437748 0.356638 0.430705 0.437748 0.503679 0.430705 0.495708 0.631464 0.662905 0.621476 0.652427 0.662905 0.679946 0.652427 0.66915 0.621476 0.652427 0.611673 0.64227 0.652427 0.66915 0.64227 0.658575 -0.792935 -0.819646 -0.780803 -0.80717 -0.819646 -0.828615 -0.80717 -0.816028 -0.780803 -0.80717 -0.768889 -0.794975 -0.80717 -0.816028 -0.794975 -0.803652 0.54568 0.47401 0.536962 0.466363 0.536962 0.466363 0.52849 0.459309 0.52849 0.459309 0.520151 0.452044 0.459309 0.380352 0.452044 0.374216 0.520151 0.452044 0.511874 0.444845 0.452044 0.374216 0.444845 0.368081 0.511874 0.444845 0.503692 0.43776 0.444845 0.368081 0.43776 0.362365 0.503692 0.43776 0.495722 0.430718 0.43776 0.362365 0.430718 0.356649 -0.828615 -0.819646 -0.816028 -0.807167 -0.819646 -0.792935 -0.807167 -0.780797 -0.816028 -0.807167 -0.803652 -0.794969 -0.807167 -0.780797 -0.794969 -0.768878 -0.508488 -0.552738 -0.501118 -0.544379 -0.552738 -0.584853 -0.544379 -0.576159 -0.501118 -0.544379 -0.493608 -0.535899 -0.584853 -0.604408 -0.576159 -0.595327 -0.604408 -0.610963 -0.595327 -0.60177 -0.493608 -0.535899 -0.486193 -0.527983 -0.486193 -0.527983 -0.479024 -0.520071 -0.558677 -0.577463 -0.550207 -0.568724 -0.577463 -0.583722 -0.568724 -0.574891 0.356638 0.430705 0.350156 0.423417 0.350156 0.423417 0.344799 0.416883 0.812693 0.827617 0.799645 0.814402 0.827617 0.824625 0.814402 0.811548 0.799645 0.814402 0.786805 0.801343 0.814402 0.811548 0.801343 0.798649 0.824625 0.803782 0.811548 0.791076 0.803782 0.76554 0.791076 0.753404 0.811548 0.791076 0.798649 0.778783 0.791076 0.753404 0.778783 0.74149 0.786805 0.801343 0.774121 0.7886 0.801343 0.798649 0.7886 0.785508 0.774121 0.7886 0.762199 0.776319 0.7886 0.785508 0.776319 0.773206 0.748828 0.730179 0.736836 0.718307 0.730179 0.695279 0.718307 0.684124 0.736836 0.718307 0.725066 0.706807 0.718307 0.684124 0.706807 0.673198 0.725066 0.706807 0.713499 0.695539 0.706807 0.673198 0.695539 0.662482 0.713499 0.695539 0.702128 0.684473 0.695539 0.662482 0.684473 0.651967 0.702128 0.684473 0.690947 0.673599 0.684473 0.651967 0.673599 0.641634 0.690947 0.673599 0.679955 0.662915 0.673599 0.641634 0.662915 0.631474 0.762196 0.731819 0.749578 0.719828 0.731819 0.68536 0.719828 0.6742 0.749578 0.719828 0.737716 0.708215 0.719828 0.6742 0.708215 0.66332 0.68536 0.624044 0.6742 0.61384 0.624044 0.54907 0.61384 0.540008 0.6742 0.61384 0.66332 0.603885 0.61384 0.540008 0.603885 0.531419 0.737716 0.708215 0.725964 0.696853 0.708215 0.66332 0.696853 0.652772 0.725964 0.696853 0.714372 0.685687 0.696853 0.652772 0.685687 0.642013 0.66332 0.603885 0.652772 0.59437 0.603885 0.531419 0.59437 0.522369 0.59437 0.522369 0.584607 0.515111 0.679955 0.662915 0.669161 0.652438 0.662915 0.631474 0.652438 0.621487 0.669161 0.652438 0.658587 0.642283 0.652438 0.621487 0.642283 0.611685 0.430718 0.356649 0.423431 0.350169 0.423431 0.350169 0.416899 0.344813 -0.610963 -0.604415 -0.60177 -0.595333 -0.604415 -0.584872 -0.595333 -0.576176 -0.584872 -0.552789 -0.576176 -0.544421 -0.552789 -0.508617 -0.544421 -0.501225 -0.544421 -0.501225 -0.535915 -0.493612 -0.583722 -0.577461 -0.574891 -0.568719 -0.577461 -0.558673 -0.568719 -0.550196 -0.535915 -0.493612 -0.527971 -0.486161 -0.527971 -0.486161 -0.520049 -0.478978 0 0.105793 0 0.104995 0.105793 0.211587 0.104995 0.207878 0 0.104995 0 0.103368 0.104995 0.207878 0.103368 0.204582 -0.489101 -0.517352 -0.481549 -0.509362 -0.481549 -0.509362 -0.47428 -0.501643 0.714372 0.685687 0.702951 0.674683 0.685687 0.642013 0.674683 0.631837 0.702951 0.674683 0.691705 0.663872 0.674683 0.631837 0.663872 0.621664 0.584607 0.515111 0.575446 0.506788 0.575446 0.506788 0.566004 0.498464 0.691705 0.663872 0.680636 0.65322 0.663872 0.621664 0.65322 0.611605 0.680636 0.65322 0.669691 0.642756 0.65322 0.611605 0.642756 0.601819 0.566004 0.498464 0.556707 0.489165 0.556707 0.489165 0.547593 0.481653 0.390606 0.279152 0.384063 0.274357 0.279152 0.161655 0.274357 0.158721 0.384063 0.274357 0.377555 0.269684 0.274357 0.158721 0.269684 0.155787 0.46993 0.371334 0.462231 0.365907 0.669691 0.642756 0.658923 0.632069 0.658923 0.632069 0.648383 0.621959 0.648383 0.621959 0.638082 0.612424 0.638082 0.612424 0.627997 0.602778 0.612424 0.573498 0.602778 0.56423 0.573498 0.521589 0.56423 0.513219 0.377555 0.269684 0.371334 0.264987 0.269684 0.155787 0.264987 0.153324 0.371334 0.264987 0.365907 0.258384 0.264987 0.153324 0.258384 0.150862 -0.613963 -0.688968 -0.604572 -0.678391 -0.604572 -0.678391 -0.59534 -0.66798 0.462231 0.365907 0.454638 0.359637 0.454638 0.359637 0.44737 0.353368 -0.59534 -0.66798 -0.58634 -0.65769 -0.58634 -0.65769 -0.57753 -0.648141 0 0.103368 0 0.101754 0.103368 0.204582 0.101754 0.201092 0 0.101754 0 0.0994825 0.101754 0.201092 0.0994825 0.198965 -0.57753 -0.648141 -0.569026 -0.638391 0.531419 0.44737 0.522369 0.439695 0.44737 0.353368 0.439695 0.348036 0.522369 0.439695 0.515111 0.428907 0.439695 0.348036 0.428907 0.342703 0.204582 0.301429 0.201092 0.296552 0.301429 0.391884 0.296552 0.385394 0.201092 0.296552 0.198965 0.289655 0.296552 0.385394 0.289655 0.380345 -0.517343 -0.489088 -0.509356 -0.481539 -0.509356 -0.481539 -0.501638 -0.474273 -0.648141 -0.704834 -0.638391 -0.69391 -0.704834 -0.745966 -0.69391 -0.734525 -0.638391 -0.69391 -0.628389 -0.6833 -0.69391 -0.734525 -0.6833 -0.723284 -0.745966 -0.771007 -0.734525 -0.759217 -0.771007 -0.779407 -0.759217 -0.767501 -0.734525 -0.759217 -0.723284 -0.747615 -0.759217 -0.767501 -0.747615 -0.755777 -0.628389 -0.6833 -0.61899 -0.672893 -0.6833 -0.723284 -0.672893 -0.712262 -0.61899 -0.672893 -0.609672 -0.662728 -0.672893 -0.712262 -0.662728 -0.701442 -0.723284 -0.747615 -0.712262 -0.736214 -0.747615 -0.755777 -0.736214 -0.744249 -0.712262 -0.736214 -0.701442 -0.725009 -0.736214 -0.744249 -0.725009 -0.732922 0.468721 0.504735 0.461221 0.496657 0.461221 0.496657 0.453985 0.488867 -0.23687 -0.316266 -0.233776 -0.311563 -0.316266 -0.388933 -0.311563 -0.383252 -0.233776 -0.311563 -0.230681 -0.304579 -0.311563 -0.383252 -0.304579 -0.378477 -0