# vtk DataFile Version 3.0
#This file was generated by the deal.II library on 2018/12/4 at 0:47:15
ASCII
DATASET UNSTRUCTURED_GRID

POINTS 5260 double
0 0.1875 0
0.0625 0.1875 0
0 0.25 0
0.0625 0.25 0
0.9375 0.1875 0
1 0.1875 0
0.9375 0.25 0
1 0.25 0
0 0.25 0
0.0625 0.25 0
0 0.3125 0
0.0625 0.3125 0
0.3125 0.1875 0
0.375 0.1875 0
0.3125 0.25 0
0.375 0.25 0
0.9375 0.25 0
1 0.25 0
0.9375 0.3125 0
1 0.3125 0
0.3125 0.25 0
0.375 0.25 0
0.3125 0.3125 0
0.375 0.3125 0
0.3125 0.3125 0
0.375 0.3125 0
0.3125 0.375 0
0.375 0.375 0
0.625 0.3125 0
0.6875 0.3125 0
0.625 0.375 0
0.6875 0.375 0
0.3125 0.375 0
0.375 0.375 0
0.3125 0.4375 0
0.375 0.4375 0
0.25 0.4375 0
0.3125 0.4375 0
0.25 0.5 0
0.3125 0.5 0
0.3125 0.4375 0
0.375 0.4375 0
0.3125 0.5 0
0.375 0.5 0
0.3125 0.5 0
0.375 0.5 0
0.3125 0.5625 0
0.375 0.5625 0
0.25 0.5625 0
0.3125 0.5625 0
0.25 0.625 0
0.3125 0.625 0
0.3125 0.5625 0
0.375 0.5625 0
0.3125 0.625 0
0.375 0.625 0
0.375 0.625 0
0.4375 0.625 0
0.375 0.6875 0
0.4375 0.6875 0
0.375 0.6875 0
0.4375 0.6875 0
0.375 0.75 0
0.4375 0.75 0
0 0.75 0
0.0625 0.75 0
0 0.8125 0
0.0625 0.8125 0
0.0625 0.75 0
0.125 0.75 0
0.0625 0.8125 0
0.125 0.8125 0
0 0.8125 0
0.0625 0.8125 0
0 0.875 0
0.0625 0.875 0
0.0625 0.8125 0
0.125 0.8125 0
0.0625 0.875 0
0.125 0.875 0
0.625 0.375 0
0.6875 0.375 0
0.625 0.4375 0
0.6875 0.4375 0
0.625 0.4375 0
0.6875 0.4375 0
0.625 0.5 0
0.6875 0.5 0
0.6875 0.4375 0
0.75 0.4375 0
0.6875 0.5 0
0.75 0.5 0
0 0.375 0
0.0625 0.375 0
0 0.4375 0
0.0625 0.4375 0
0.625 0.5 0
0.6875 0.5 0
0.625 0.5625 0
0.6875 0.5625 0
0.625 0.5625 0
0.6875 0.5625 0
0.625 0.625 0
0.6875 0.625 0
0.6875 0.5625 0
0.75 0.5625 0
0.6875 0.625 0
0.75 0.625 0
0.5625 0.625 0
0.625 0.625 0
0.5625 0.6875 0
0.625 0.6875 0
0.5625 0.6875 0
0.625 0.6875 0
0.5625 0.75 0
0.625 0.75 0
0.875 0.75 0
0.9375 0.75 0
0.875 0.8125 0
0.9375 0.8125 0
0.9375 0.75 0
1 0.75 0
0.9375 0.8125 0
1 0.8125 0
0.875 0.8125 0
0.9375 0.8125 0
0.875 0.875 0
0.9375 0.875 0
0.9375 0.8125 0
1 0.8125 0
0.9375 0.875 0
1 0.875 0
0.9375 0.375 0
1 0.375 0
0.9375 0.4375 0
1 0.4375 0
0 0.5 0
0.0625 0.5 0
0 0.5625 0
0.0625 0.5625 0
0.0625 0.5 0
0.125 0.5 0
0.0625 0.5625 0
0.125 0.5625 0
0.0625 0.5625 0
0.125 0.5625 0
0.0625 0.625 0
0.125 0.625 0
0.1875 0.5625 0
0.25 0.5625 0
0.1875 0.625 0
0.25 0.625 0
0.1875 0.625 0
0.25 0.625 0
0.1875 0.6875 0
0.25 0.6875 0
0.1875 0.6875 0
0.25 0.6875 0
0.1875 0.75 0
0.25 0.75 0
0.25 0.75 0
0.3125 0.75 0
0.25 0.8125 0
0.3125 0.8125 0
0.3125 0.75 0
0.375 0.75 0
0.3125 0.8125 0
0.375 0.8125 0
0.25 0.8125 0
0.3125 0.8125 0
0.25 0.875 0
0.3125 0.875 0
0.3125 0.8125 0
0.375 0.8125 0
0.3125 0.875 0
0.375 0.875 0
0.375 0.75 0
0.4375 0.75 0
0.375 0.8125 0
0.4375 0.8125 0
0.4375 0.75 0
0.5 0.75 0
0.4375 0.8125 0
0.5 0.8125 0
0.375 0.8125 0
0.4375 0.8125 0
0.375 0.875 0
0.4375 0.875 0
0.4375 0.8125 0
0.5 0.8125 0
0.4375 0.875 0
0.5 0.875 0
0.25 0.875 0
0.3125 0.875 0
0.25 0.9375 0
0.3125 0.9375 0
0.3125 0.875 0
0.375 0.875 0
0.3125 0.9375 0
0.375 0.9375 0
0.25 0.9375 0
0.3125 0.9375 0
0.25 1 0
0.3125 1 0
0.3125 0.9375 0
0.375 0.9375 0
0.3125 1 0
0.375 1 0
0.375 0.875 0
0.4375 0.875 0
0.375 0.9375 0
0.4375 0.9375 0
0.4375 0.875 0
0.5 0.875 0
0.4375 0.9375 0
0.5 0.9375 0
0.375 0.9375 0
0.4375 0.9375 0
0.375 1 0
0.4375 1 0
0.4375 0.9375 0
0.5 0.9375 0
0.4375 1 0
0.5 1 0
0.75 0.5625 0
0.8125 0.5625 0
0.75 0.625 0
0.8125 0.625 0
0.875 0.5 0
0.9375 0.5 0
0.875 0.5625 0
0.9375 0.5625 0
0.9375 0.5 0
1 0.5 0
0.9375 0.5625 0
1 0.5625 0
0.75 0.625 0
0.8125 0.625 0
0.75 0.6875 0
0.8125 0.6875 0
0.75 0.6875 0
0.8125 0.6875 0
0.75 0.75 0
0.8125 0.75 0
0.5 0.75 0
0.5625 0.75 0
0.5 0.8125 0
0.5625 0.8125 0
0.5625 0.75 0
0.625 0.75 0
0.5625 0.8125 0
0.625 0.8125 0
0.5 0.8125 0
0.5625 0.8125 0
0.5 0.875 0
0.5625 0.875 0
0.5625 0.8125 0
0.625 0.8125 0
0.5625 0.875 0
0.625 0.875 0
0.625 0.75 0
0.6875 0.75 0
0.625 0.8125 0
0.6875 0.8125 0
0.6875 0.75 0
0.75 0.75 0
0.6875 0.8125 0
0.75 0.8125 0
0.625 0.8125 0
0.6875 0.8125 0
0.625 0.875 0
0.6875 0.875 0
0.6875 0.8125 0
0.75 0.8125 0
0.6875 0.875 0
0.75 0.875 0
0.5 0.875 0
0.5625 0.875 0
0.5 0.9375 0
0.5625 0.9375 0
0.5625 0.875 0
0.625 0.875 0
0.5625 0.9375 0
0.625 0.9375 0
0.5 0.9375 0
0.5625 0.9375 0
0.5 1 0
0.5625 1 0
0.625 0.875 0
0.6875 0.875 0
0.625 0.9375 0
0.6875 0.9375 0
0.625 0.9375 0
0.6875 0.9375 0
0.625 1 0
0.6875 1 0
0.3125 0.625 0
0.375 0.625 0
0.3125 0.6875 0
0.375 0.6875 0
0.3125 0.6875 0
0.375 0.6875 0
0.3125 0.75 0
0.375 0.75 0
0.625 0.625 0
0.6875 0.625 0
0.625 0.6875 0
0.6875 0.6875 0
0.625 0.6875 0
0.6875 0.6875 0
0.625 0.75 0
0.6875 0.75 0
0 0.125 0
0.03125 0.125 0
0 0.15625 0
0.03125 0.15625 0
0.03125 0.125 0
0.0625 0.125 0
0.03125 0.15625 0
0.0625 0.15625 0
0 0.15625 0
0.03125 0.15625 0
0 0.1875 0
0.03125 0.1875 0
0.03125 0.15625 0
0.0625 0.15625 0
0.03125 0.1875 0
0.0625 0.1875 0
0.125 0 0
0.15625 0 0
0.125 0.03125 0
0.15625 0.03125 0
0.15625 0 0
0.1875 0 0
0.15625 0.03125 0
0.1875 0.03125 0
0.15625 0.03125 0
0.1875 0.03125 0
0.15625 0.0625 0
0.1875 0.0625 0
0.125 0.09375 0
0.15625 0.09375 0
0.125 0.125 0
0.15625 0.125 0
0.0625 0.15625 0
0.09375 0.15625 0
0.0625 0.1875 0
0.09375 0.1875 0
0.3125 0 0
0.34375 0 0
0.3125 0.03125 0
0.34375 0.03125 0
0.34375 0 0
0.375 0 0
0.34375 0.03125 0
0.375 0.03125 0
0.3125 0.03125 0
0.34375 0.03125 0
0.3125 0.0625 0
0.34375 0.0625 0
0.34375 0.03125 0
0.375 0.03125 0
0.34375 0.0625 0
0.375 0.0625 0
0.125 0.125 0
0.15625 0.125 0
0.125 0.15625 0
0.15625 0.15625 0
0.125 0.15625 0
0.15625 0.15625 0
0.125 0.1875 0
0.15625 0.1875 0
0.0625 0.1875 0
0.09375 0.1875 0
0.0625 0.21875 0
0.09375 0.21875 0
0.0625 0.21875 0
0.09375 0.21875 0
0.0625 0.25 0
0.09375 0.25 0
0.125 0.1875 0
0.15625 0.1875 0
0.125 0.21875 0
0.15625 0.21875 0
0.28125 0 0
0.3125 0 0
0.28125 0.03125 0
0.3125 0.03125 0
0.28125 0.03125 0
0.3125 0.03125 0
0.28125 0.0625 0
0.3125 0.0625 0
0.28125 0.0625 0
0.3125 0.0625 0
0.28125 0.09375 0
0.3125 0.09375 0
0.28125 0.09375 0
0.3125 0.09375 0
0.28125 0.125 0
0.3125 0.125 0
0.46875 0 0
0.5 0 0
0.46875 0.03125 0
0.5 0.03125 0
0.375 0.25 0
0.40625 0.25 0
0.375 0.28125 0
0.40625 0.28125 0
0.375 0.28125 0
0.40625 0.28125 0
0.375 0.3125 0
0.40625 0.3125 0
0.375 0.3125 0
0.40625 0.3125 0
0.375 0.34375 0
0.40625 0.34375 0
0.375 0.34375 0
0.40625 0.34375 0
0.375 0.375 0
0.40625 0.375 0
0 0 0
0.03125 0 0
0 0.03125 0
0.03125 0.03125 0
0.03125 0 0
0.0625 0 0
0.03125 0.03125 0
0.0625 0.03125 0
0 0.03125 0
0.03125 0.03125 0
0 0.0625 0
0.03125 0.0625 0
0.03125 0.03125 0
0.0625 0.03125 0
0.03125 0.0625 0
0.0625 0.0625 0
0 0.0625 0
0.03125 0.0625 0
0 0.09375 0
0.03125 0.09375 0
0.03125 0.0625 0
0.0625 0.0625 0
0.03125 0.09375 0
0.0625 0.09375 0
0 0.09375 0
0.03125 0.09375 0
0 0.125 0
0.03125 0.125 0
0.03125 0.09375 0
0.0625 0.09375 0
0.03125 0.125 0
0.0625 0.125 0
0.6875 0 0
0.71875 0 0
0.6875 0.03125 0
0.71875 0.03125 0
0.6875 0.03125 0
0.71875 0.03125 0
0.6875 0.0625 0
0.71875 0.0625 0
0.6875 0.0625 0
0.71875 0.0625 0
0.6875 0.09375 0
0.71875 0.09375 0
0.6875 0.09375 0
0.71875 0.09375 0
0.6875 0.125 0
0.71875 0.125 0
0.90625 0.15625 0
0.9375 0.15625 0
0.90625 0.1875 0
0.9375 0.1875 0
0.9375 0.125 0
0.96875 0.125 0
0.9375 0.15625 0
0.96875 0.15625 0
0.96875 0.125 0
1 0.125 0
0.96875 0.15625 0
1 0.15625 0
0.9375 0.15625 0
0.96875 0.15625 0
0.9375 0.1875 0
0.96875 0.1875 0
0.96875 0.15625 0
1 0.15625 0
0.96875 0.1875 0
1 0.1875 0
0.90625 0.1875 0
0.9375 0.1875 0
0.90625 0.21875 0
0.9375 0.21875 0
0.90625 0.21875 0
0.9375 0.21875 0
0.90625 0.25 0
0.9375 0.25 0
0.3125 0.0625 0
0.34375 0.0625 0
0.3125 0.09375 0
0.34375 0.09375 0
0.34375 0.0625 0
0.375 0.0625 0
0.34375 0.09375 0
0.375 0.09375 0
0.3125 0.09375 0
0.34375 0.09375 0
0.3125 0.125 0
0.34375 0.125 0
0.34375 0.09375 0
0.375 0.09375 0
0.34375 0.125 0
0.375 0.125 0
0.5 0 0
0.53125 0 0
0.5 0.03125 0
0.53125 0.03125 0
0.59375 0.25 0
0.625 0.25 0
0.59375 0.28125 0
0.625 0.28125 0
0.59375 0.28125 0
0.625 0.28125 0
0.59375 0.3125 0
0.625 0.3125 0
0.59375 0.3125 0
0.625 0.3125 0
0.59375 0.34375 0
0.625 0.34375 0
0.59375 0.34375 0
0.625 0.34375 0
0.59375 0.375 0
0.625 0.375 0
0.4375 0.3125 0
0.46875 0.3125 0
0.4375 0.34375 0
0.46875 0.34375 0
0.46875 0.3125 0
0.5 0.3125 0
0.46875 0.34375 0
0.5 0.34375 0
0.4375 0.34375 0
0.46875 0.34375 0
0.4375 0.375 0
0.46875 0.375 0
0.46875 0.34375 0
0.5 0.34375 0
0.46875 0.375 0
0.5 0.375 0
0.0625 0.25 0
0.09375 0.25 0
0.0625 0.28125 0
0.09375 0.28125 0
0.0625 0.28125 0
0.09375 0.28125 0
0.0625 0.3125 0
0.09375 0.3125 0
0.8125 0 0
0.84375 0 0
0.8125 0.03125 0
0.84375 0.03125 0
0.84375 0 0
0.875 0 0
0.84375 0.03125 0
0.875 0.03125 0
0.8125 0.03125 0
0.84375 0.03125 0
0.8125 0.0625 0
0.84375 0.0625 0
0.28125 0.125 0
0.3125 0.125 0
0.28125 0.15625 0
0.3125 0.15625 0
0.28125 0.15625 0
0.3125 0.15625 0
0.28125 0.1875 0
0.3125 0.1875 0
0.84375 0.09375 0
0.875 0.09375 0
0.84375 0.125 0
0.875 0.125 0
0.28125 0.1875 0
0.3125 0.1875 0
0.28125 0.21875 0
0.3125 0.21875 0
0.28125 0.21875 0
0.3125 0.21875 0
0.28125 0.25 0
0.3125 0.25 0
0.84375 0.125 0
0.875 0.125 0
0.84375 0.15625 0
0.875 0.15625 0
0.84375 0.15625 0
0.875 0.15625 0
0.84375 0.1875 0
0.875 0.1875 0
0.1875 0.0625 0
0.21875 0.0625 0
0.1875 0.09375 0
0.21875 0.09375 0
0.21875 0.0625 0
0.25 0.0625 0
0.21875 0.09375 0
0.25 0.09375 0
0.1875 0.09375 0
0.21875 0.09375 0
0.1875 0.125 0
0.21875 0.125 0
0.21875 0.09375 0
0.25 0.09375 0
0.21875 0.125 0
0.25 0.125 0
0.84375 0.1875 0
0.875 0.1875 0
0.84375 0.21875 0
0.875 0.21875 0
0.375 0.1875 0
0.40625 0.1875 0
0.375 0.21875 0
0.40625 0.21875 0
0.375 0.21875 0
0.40625 0.21875 0
0.375 0.25 0
0.40625 0.25 0
0.90625 0.25 0
0.9375 0.25 0
0.90625 0.28125 0
0.9375 0.28125 0
0.90625 0.28125 0
0.9375 0.28125 0
0.90625 0.3125 0
0.9375 0.3125 0
0.625 0 0
0.65625 0 0
0.625 0.03125 0
0.65625 0.03125 0
0.65625 0 0
0.6875 0 0
0.65625 0.03125 0
0.6875 0.03125 0
0.625 0.03125 0
0.65625 0.03125 0
0.625 0.0625 0
0.65625 0.0625 0
0.65625 0.03125 0
0.6875 0.03125 0
0.65625 0.0625 0
0.6875 0.0625 0
0.28125 0.25 0
0.3125 0.25 0
0.28125 0.28125 0
0.3125 0.28125 0
0.25 0.28125 0
0.28125 0.28125 0
0.25 0.3125 0
0.28125 0.3125 0
[...]
POINT_DATA 5260
SCALARS U double 1
LOOKUP_TABLE default
0 0.400753 0 0.373318 0.400757 2.67986e-16 0.373321 2.5175e-16 0 0.373318 0 0.350032 0.1337 -0.282213 0.123274 -0.26652 0.373321 2.5175e-16 0.350036 2.36497e-16 0.123274 -0.26652 0.1137 -0.252281 0.1137 -0.252281 0.10399 -0.238615 -0.252106 0.113636 -0.238442 0.104076 0.10399 -0.238615 0.097921 -0.225699 0.384607 0.097921 0.359307 0.089986 0.097921 -0.225699 0.089986 -0.212876 0.089986 -0.212876 0.0834921 -0.199712 0.339631 0.0834921 0.316558 0.07883 0.0834921 -0.199712 0.07883 -0.190129 -0.190129 -0.397301 -0.177928 -0.370635 -0.177928 -0.370635 -0.166485 -0.350738 0 0.224558 0 0.210408 0.224558 0.371275 0.210408 0.348021 0 0.210408 0 0.199732 0.210408 0.348021 0.199732 0.329516 -0.238442 0.104076 -0.225624 0.097972 -0.225624 0.097972 -0.212854 0.0899936 0.097972 0.384631 0.0899936 0.359292 0 0.327608 0 0.306061 -0.212854 0.0899936 -0.199723 0.0834618 -0.199723 0.0834618 -0.190171 0.0787605 0.0834618 0.339529 0.0787605 0.316414 -0.397321 -0.190171 -0.370667 -0.177999 -0.370667 -0.177999 -0.350763 -0.166559 0.37135 0.224655 0.348035 0.210433 0.224655 1.52694e-16 0.210433 1.43443e-16 0.348035 0.210433 0.329516 0.199747 0.210433 1.43443e-16 0.199747 1.34752e-16 0.327618 2.22168e-16 0.306111 2.08708e-16 0 0.289764 0 0.270678 0.289764 0.479311 0.270678 0.448374 0.270678 0.448374 0.253453 0.421704 0.475845 0.339631 0.443961 0.316558 0.443961 0.316558 0.415864 0.294662 0.415864 0.294662 0.392439 0.280022 0.280022 0.0698913 0.261013 0.0664863 0.0698913 -0.166485 0.0664863 -0.155249 0.261013 0.0664863 0.248296 0.0641919 0.0664863 -0.155249 0.0641919 -0.144305 -0.166485 -0.350738 -0.155249 -0.32799 -0.350738 -0.422262 -0.32799 -0.392813 -0.155249 -0.32799 -0.144305 -0.30665 -0.32799 -0.392813 -0.30665 -0.367736 0.248296 0.0641919 0.237303 0.0632962 0.0641919 -0.144305 0.0632962 -0.13384 0.237303 0.0632962 0.228876 0.0631468 0.0632962 -0.13384 0.0631468 -0.123867 -0.144305 -0.30665 -0.13384 -0.287194 -0.30665 -0.367736 -0.287194 -0.344894 -0.13384 -0.287194 -0.123867 -0.26913 -0.287194 -0.344894 -0.26913 -0.32368 0.339529 0.475531 0.316414 0.443346 0.47949 0.290047 0.449587 0.27193 0.290047 1.96063e-16 0.27193 1.84184e-16 0.316414 0.443346 0.2945 0.415731 0.2945 0.415731 0.279891 0.392402 -0.422262 -0.350763 -0.392813 -0.328014 -0.350763 -0.166559 -0.328014 -0.155288 -0.392813 -0.328014 -0.367736 -0.306811 -0.328014 -0.155288 -0.306811 -0.144561 -0.166559 0.0697584 -0.155288 0.0664503 0.0697584 0.279891 0.0664503 0.260945 -0.155288 0.0664503 -0.144561 0.0643745 0.0664503 0.260945 0.0643745 0.249022 -0.367736 -0.306811 -0.344894 -0.288054 -0.306811 -0.144561 -0.288054 -0.13479 -0.344894 -0.288054 -0.32368 -0.26913 -0.144561 0.0643745 -0.13479 0.062173 -0.13479 0.062173 -0.123867 0.0631468 0.07883 -0.190129 0.071513 -0.177928 0.071513 -0.177928 0.0698913 -0.166485 -0.190171 0.0787605 -0.177999 0.0714025 -0.177999 0.0714025 -0.166559 0.0697584 0 0.222828 0 0.214752 0.222828 0.426152 0.214752 0.412344 0 0.214752 0 0.200377 0.214752 0.412344 0.200377 0.400753 0.812879 0.875617 0.786627 0.846708 0.875617 0.862947 0.846708 0.832705 0.846708 0.832705 0.8172 0.806172 0.734556 0.790353 0.709452 0.763464 0.412344 0.575138 0.400753 0.555708 0.171651 -0.0862407 0.165078 -0.0840652 -0.0862407 -0.336705 -0.0840652 -0.325978 0.165078 -0.0840652 0.158652 -0.0821647 -0.0840652 -0.325978 -0.0821647 -0.315965 0.709452 0.763464 0.685986 0.737931 0.685986 0.737931 0.663399 0.713434 0.400753 0.555708 0.387036 0.5372 0.387036 0.5372 0.373318 0.518983 0.663399 0.713434 0.641861 0.690206 0.41476 0.171651 0.39984 0.165078 0.39984 0.165078 0.385689 0.158652 0.385689 0.158652 0.371958 0.152354 0.371958 0.152354 0.358543 0.14619 -0.841967 -0.879853 -0.814212 -0.851668 -0.26652 -0.435921 -0.2594 -0.423171 -0.2594 -0.423171 -0.252281 -0.411251 -0.252281 -0.411251 -0.245448 -0.399568 -0.245448 -0.399568 -0.238615 -0.387538 0 0.255408 0 0.246881 0.255408 0.48882 0.246881 0.47243 0 0.246881 0 0.238628 0.246881 0.47243 0.238628 0.45661 0 0.238628 0 0.230604 0.238628 0.45661 0.230604 0.44133 0 0.230604 0 0.222828 0.230604 0.44133 0.222828 0.426152 0.171651 0.41476 0.165119 0.399871 0.165119 0.399871 0.158733 0.385747 0.158733 0.385747 0.152463 0.372037 0.152463 0.372037 0.146306 0.358627 0.575144 0.412348 0.555713 0.400757 0.426156 0.22283 0.412348 0.214754 0.22283 2.8527e-16 0.214754 2.76493e-16 0.412348 0.214754 0.400757 0.200379 0.214754 2.76493e-16 0.200379 2.67986e-16 0.555713 0.400757 0.537204 0.387039 0.537204 0.387039 0.518987 0.373321 0.158652 -0.0821647 0.152354 -0.0805482 -0.0821647 -0.315965 -0.0805482 -0.306646 0.152354 -0.0805482 0.14619 -0.0791065 -0.0805482 -0.306646 -0.0791065 -0.297877 -0.879853 -0.841967 -0.851668 -0.814185 -0.435542 -0.265715 -0.422044 -0.258299 -0.422044 -0.258299 -0.410696 -0.252106 -0.410696 -0.252106 -0.399287 -0.245274 -0.399287 -0.245274 -0.387353 -0.238442 -0.535945 -0.615314 -0.520164 -0.596929 -0.615314 -0.642315 -0.596929 -0.62332 -0.520164 -0.596929 -0.504841 -0.579671 -0.596929 -0.62332 -0.579671 -0.605158 0.373318 0.518983 0.361675 0.501407 0.361675 0.501407 0.350032 0.486013 0.862947 0.875617 0.832715 0.846714 0.875617 0.812879 0.846714 0.786631 0.832715 0.846714 0.806189 0.817211 0.358543 0.14619 0.345536 0.140348 0.345536 0.140348 0.333117 0.1337 0.790367 0.734565 0.76348 0.709462 0.333117 0.1337 0.321186 0.128487 0.321186 0.128487 0.309496 0.123274 0.76348 0.709462 0.737947 0.685996 0.737947 0.685996 0.713448 0.663407 0.806172 0.72489 0.776946 0.698513 0.72489 0.58014 0.698513 0.559369 0.776946 0.698513 0.751135 0.674118 0.698513 0.559369 0.674118 0.53961 0.713448 0.663407 0.690217 0.641867 -0.282213 -0.463224 -0.274367 -0.448757 -0.274367 -0.448757 -0.26652 -0.435921 0.518987 0.373321 0.50141 0.361678 0.50141 0.361678 0.486018 0.350036 -0.336705 -0.0862407 -0.325918 -0.0840128 -0.0862407 0.171651 -0.0840128 0.165119 -0.325918 -0.0840128 -0.31584 -0.0820592 -0.0840128 0.165119 -0.0820592 0.158733 0.309496 0.123274 0.299495 0.118487 0.452962 0.299495 0.438988 0.289186 0.299495 0.118487 0.289186 0.1137 0.289186 0.1137 0.278103 0.108845 0.278103 0.108845 0.269205 0.10399 0.146306 0.358627 0.140322 0.345736 0.140322 0.345736 0.134575 0.3334 0.134575 0.3334 0.129062 0.321563 0.129062 0.321563 0.123927 0.309841 0.48882 0.255408 0.472432 0.246882 0.255408 3.23253e-16 0.246882 3.13307e-16 0.472432 0.246882 0.456613 0.23863 0.246882 3.13307e-16 0.23863 3.03668e-16 0.456613 0.23863 0.441334 0.230606 0.23863 3.03668e-16 0.230606 2.94325e-16 0.441334 0.230606 0.426156 0.22283 0.230606 2.94325e-16 0.22283 2.8527e-16 0.123927 0.309841 0.119175 0.299732 0.119175 0.299732 0.113636 0.289315 0.299732 0.453074 0.289315 0.439057 0.113636 0.289315 0.108856 0.278138 0.108856 0.278138 0.104076 0.269246 0.409705 0.269205 0.394849 0.258948 0.269205 0.10399 0.258948 0.100956 0.394849 0.258948 0.384607 0.241264 0.258948 0.100956 0.241264 0.097921 -0.31584 -0.0820592 -0.306448 -0.0803933 -0.0820592 0.158733 -0.0803933 0.152463 -0.306448 -0.0803933 -0.297594 -0.078939 -0.0803933 0.152463 -0.078939 0.146306 -0.642315 -0.615093 -0.62332 -0.596776 -0.615093 -0.535492 -0.596776 -0.519894 -0.62332 -0.596776 -0.605158 -0.579575 -0.596776 -0.519894 -0.579575 -0.504677 -0.212876 -0.344823 -0.206294 -0.333284 -0.206294 -0.333284 -0.199712 -0.324011 -0.199712 -0.324011 -0.194921 -0.313159 -0.324011 -0.420613 -0.313159 -0.406623 -0.194921 -0.313159 -0.190129 -0.293715 -0.313159 -0.406623 -0.293715 -0.397301 -0.420613 -0.481703 -0.406623 -0.467352 -0.406623 -0.467352 -0.397301 -0.453436 -0.467352 -0.488538 -0.453436 -0.473092 -0.238615 -0.387538 -0.232157 -0.377014 -0.232157 -0.377014 -0.225699 -0.365867 -0.377014 -0.489243 -0.365867 -0.47549 -0.225699 -0.365867 -0.219288 -0.355228 -0.365867 -0.47549 -0.355228 -0.46129 -0.219288 -0.355228 -0.212876 -0.344823 -0.355228 -0.46129 -0.344823 -0.44764 -0.47549 -0.544941 -0.46129 -0.527928 -0.46129 -0.527928 -0.44764 -0.513005 0.751135 0.674118 0.725807 0.651114 0.674118 0.53961 0.651114 0.520797 0.725807 0.651114 0.7015 0.629072 0.651114 0.520797 0.629072 0.502849 -0.397301 -0.453436 -0.383968 -0.439118 -0.453436 -0.473092 -0.439118 -0.458781 -0.383968 -0.439118 -0.370635 -0.424881 0.7015 0.629072 0.678008 0.608026 0.629072 0.502849 0.608026 0.485707 0.678008 0.608026 0.655453 0.588398 0.608026 0.485707 0.588398 0.469315 -0.336705 -0.558173 -0.325978 -0.53983 -0.558173 -0.731571 -0.53983 -0.706668 -0.325978 -0.53983 -0.315965 -0.522649 -0.53983 -0.706668 -0.522649 -0.685169 -0.315965 -0.522649 -0.306646 -0.506571 -0.522649 -0.685169 -0.506571 -0.663327 -0.306646 -0.506571 -0.297877 -0.491206 -0.506571 -0.663327 -0.491206 -0.64261 -0.387353 -0.238442 -0.37689 -0.232033 -0.48914 -0.37689 -0.475427 -0.365789 -0.37689 -0.232033 -0.365789 -0.225624 -0.544905 -0.475427 -0.527908 -0.461254 -0.527908 -0.461254 -0.512995 -0.44762 -0.475427 -0.365789 -0.461254 -0.355182 -0.365789 -0.225624 -0.355182 -0.219239 -0.461254 -0.355182 -0.44762 -0.344799 -0.355182 -0.219239 -0.344799 -0.212854 0.104076 0.269246 0.101024 0.258993 0.269246 0.409733 0.258993 0.394877 0.101024 0.258993 0.097972 0.241302 0.258993 0.394877 0.241302 0.384631 -0.685169 -0.78913 -0.663327 -0.763097 -0.78913 -0.824114 -0.763097 -0.797448 -0.663327 -0.763097 -0.64261 -0.738875 -0.763097 -0.797448 -0.738875 -0.771923 0 0.175016 0 0.174818 0.175016 0.350032 0.174818 0.336154 0 0.174818 0 0.163804 0.174818 0.336154 0.163804 0.327608 0.327608 0.45434 0.316834 0.439495 0.316834 0.439495 0.306061 0.424519 0.439495 0.524517 0.424519 0.50699 0.306061 0.424519 0.292844 0.409976 0.424519 0.50699 0.409976 0.489132 0.292844 0.409976 0.289764 0.384538 0.409976 0.489132 0.384538 0.479311 -0.344799 -0.212854 -0.333277 -0.206289 -0.333277 -0.206289 -0.324017 -0.199723 -0.481704 -0.420616 -0.467358 -0.406635 -0.488538 -0.467358 -0.473092 -0.453445 -0.467358 -0.406635 -0.453445 -0.397321 -0.420616 -0.324017 -0.406635 -0.313178 -0.324017 -0.199723 -0.313178 -0.194947 -0.406635 -0.313178 -0.397321 -0.293746 -0.313178 -0.194947 -0.293746 -0.190171 0.350032 0.486013 0.336154 0.470135 0.486013 0.581185 0.470135 0.561642 0.336154 0.470135 0.327608 0.45434 0.470135 0.561642 0.45434 0.5436 -0.473092 -0.453445 -0.458781 -0.439131 -0.453445 -0.397321 -0.439131 -0.383994 -0.439131 -0.383994 -0.424896 -0.370667 0.581185 0.624851 0.561642 0.604247 0.624851 0.614379 0.604247 0.59412 0.561642 0.604247 0.5436 0.584776 0.604247 0.59412 0.584776 0.575193 0.614379 0.550658 0.59412 0.532155 0.550658 0.438988 0.532155 0.423309 0.59412 0.532155 0.575193 0.514391 0.532155 0.423309 0.514391 0.409705 0.514391 0.409705 0.496517 0.394849 0.496517 0.394849 0.480624 0.384607 0.480624 0.384607 0.466427 0.371957 0.520415 0.466427 0.503026 0.450476 0.466427 0.371957 0.450476 0.359307 0.409733 0.514411 0.394877 0.496538 0.394877 0.496538 0.384631 0.480645 0.384631 0.480645 0.371961 0.466441 0.371961 0.466441 0.359292 0.450459 0.466441 0.520452 0.450459 0.503059 0.14619 -0.0791065 0.140348 -0.0777314 -0.0791065 -0.297877 -0.0777314 -0.289431 0.140348 -0.0777314 0.1337 -0.0742569 -0.0777314 -0.289431 -0.0742569 -0.282213 -0.297877 -0.491206 -0.289431 -0.476761 -0.491206 -0.64261 -0.476761 -0.623048 -0.289431 -0.476761 -0.282213 -0.463224 -0.476761 -0.623048 -0.463224 -0.604653 0.454355 0.327618 0.439524 0.316865 0.524546 0.439524 0.507043 0.424578 0.439524 0.316865 0.424578 0.306111 -0.64261 -0.738875 -0.623048 -0.715962 -0.738875 -0.771923 -0.715962 -0.747803 -0.623048 -0.715962 -0.604653 -0.694043 -0.715962 -0.747803 -0.694043 -0.724892 0.507043 0.424578 0.489233 0.410096 0.424578 0.306111 0.410096 0.292955 0.489233 0.410096 0.47949 0.384769 0.410096 0.292955 0.384769 0.290047 -0.604653 -0.694043 -0.585591 -0.67315 -0.694043 -0.724892 -0.67315 -0.703064 -0.585591 -0.67315 -0.568745 -0.653323 -0.67315 -0.703064 -0.653323 -0.68219 0.439057 0.550689 0.423347 0.532177 0.550689 0.614392 0.532177 0.594132 0.423347 0.532177 0.409733 0.514411 0.532177 0.594132 0.514411 0.575209 0.479311 0.512863 0.463843 0.498091 0.463843 0.498091 0.448374 0.482415 0.498091 0.486993 0.482415 0.475845 0.503026 0.450476 0.486993 0.43499 0.450476 0.359307 0.43499 0.343038 0.486993 0.43499 0.475845 0.407738 0.43499 0.343038 0.407738 0.339631 0.448374 0.482415 0.435039 0.467437 0.482415 0.475845 0.467437 0.459903 0.435039 0.467437 0.421704 0.452233 0.467437 0.459903 0.452233 0.443961 0.614392 0.624858 0.594132 0.604256 0.624858 0.58119 0.604256 0.56165 0.594132 0.604256 0.575209 0.584791 0.604256 0.56165 0.584791 0.543616 0.452233 0.443961 0.436141 0.429913 0.436141 0.429913 0.422447 0.415864 0.58119 0.486018 0.56165 0.470142 0.486018 0.350036 0.470142 0.33616 0.56165 0.470142 0.543616 0.454355 0.470142 0.33616 0.454355 0.327618 0.422447 0.415864 0.409483 0.404152 0.409483 0.404152 0.397928 0.392439 0.350036 0.175018 0.33616 0.174821 0.175018 2.36497e-16 0.174821 2.29221e-16 0.33616 0.174821 0.327618 0.163809 0.174821 2.29221e-16 0.163809 2.22168e-16 -0.731571 -0.558173 -0.70662 -0.539771 -0.558173 -0.336705 -0.539771 -0.325918 -0.70662 -0.539771 -0.685063 -0.522522 -0.539771 -0.325918 -0.522522 -0.31584 -0.824114 -0.78907 -0.797448 -0.762988 -0.78907 -0.685063 -0.762988 -0.66314 -0.797448 -0.762988 -0.771923 -0.738693 -0.762988 -0.66314 -0.738693 -0.642289 -0.685063 -0.522522 -0.66314 -0.506354 -0.522522 -0.31584 -0.506354 -0.306448 -0.66314 -0.506354 -0.642289 -0.490859 -0.506354 -0.306448 -0.490859 -0.297594 -0.771923 -0.738693 -0.747803 -0.715684 -0.738693 -0.642289 -0.715684 -0.622515 -0.747803 -0.715684 -0.724892 -0.693835 -0.715684 -0.622515 -0.693835 -0.603709 -0.642289 -0.490859 -0.622515 -0.476102 -0.490859 -0.297594 -0.476102 -0.289166 -0.622515 -0.476102 -0.603709 -0.46203 -0.476102 -0.289166 -0.46203 -0.281109 -0.724892 -0.693835 -0.703064 -0.673054 -0.693835 -0.603709 -0.673054 -0.585794 -0.703064 -0.673054 -0.68219 -0.65319 -0.673054 -0.585794 -0.65319 -0.568948 -0.603709 -0.46203 -0.585794 -0.448583 -0.46203 -0.281109 -0.448583 -0.273341 -0.585794 -0.448583 -0.568948 -0.435542 -0.448583 -0.273341 -0.435542 -0.265715 -0.297594 -0.078939 -0.289166 -0.0776161 -0.078939 0.146306 -0.0776161 0.140322 -0.289166 -0.0776161 -0.281109 -0.0763586 -0.0776161 0.140322 -0.0763586 0.134575 -0.281109 -0.0763586 -0.273341 -0.0750937 -0.0763586 0.134575 -0.0750937 0.129062 -0.273341 -0.0750937 -0.265715 -0.0737768 -0.0750937 0.129062 -0.0737768 0.123927 0.580179 0.724916 0.559424 0.69855 0.724916 0.806189 0.69855 0.776969 0.559424 0.69855 0.539685 0.674164 0.69855 0.776969 0.674164 0.751161 0.539685 0.674164 0.520906 0.65117 0.674164 0.751161 0.65117 0.725836 0.520906 0.65117 0.502994 0.629138 0.65117 0.725836 0.629138 0.701529 0.502994 0.629138 0.485873 0.608094 0.629138 0.701529 0.608094 0.678035 0.485873 0.608094 0.469468 0.588459 0.608094 0.678035 0.588459 0.655476 0.359292 0.450459 0.342978 0.434902 0.450459 0.503059 0.434902 0.486911 0.342978 0.434902 0.339529 0.40753 0.434902 0.486911 0.40753 0.475531 0.513011 0.47949 0.498265 0.464539 0.486911 0.498265 0.475531 0.482011 0.498265 0.464539 0.482011 0.449587 -0.265715 -0.0737768 -0.258299 -0.0724198 -0.0737768 0.123927 -0.0724198 0.119175 -0.258299 -0.0724198 -0.252106 -0.069235 -0.0724198 0.119175 -0.069235 0.113636 0.475531 0.482011 0.459439 0.466613 0.482011 0.449587 0.466613 0.431389 0.459439 0.466613 0.443346 0.450157 0 0.131723 0 0.127118 0.131723 0.253453 0.127118 0.24176 0 0.127118 0 0.122631 0.127118 0.24176 0.122631 0.234844 0.449587 0.360759 0.431389 0.360209 0.360759 0.27193 0.360209 0.25769 0.431389 0.360209 0.417551 0.349139 0.360209 0.25769 0.349139 0.250724 0.253453 0.337579 0.24176 0.337252 0.337579 0.421704 0.337252 0.403199 0.24176 0.337252 0.234844 0.326843 0.337252 0.403199 0.326843 0.391626 0.443346 0.450157 0.429538 0.436079 0.429538 0.436079 0.415731 0.422529 0 0.122631 0 0.118977 0.122631 0.234844 0.118977 0.226725 0 0.118977 0 0.112279 0.118977 0.226725 0.112279 0.224558 0.415731 0.422529 0.404066 0.409532 0.404066 0.409532 0.392402 0.397945 0.234844 0.326843 0.226725 0.316752 0.326843 0.391626 0.316752 0.378519 0.226725 0.316752 0.224558 0.297917 0.316752 0.378519 0.297917 0.371275 0.417551 0.349139 0.40469 0.338267 0.349139 0.250724 0.338267 0.242966 0.40469 0.338267 0.391959 0.327431 0.338267 0.242966 0.327431 0.235226 0.250724 0.13088 0.242966 0.126889 0.13088 1.73025e-16 0.126889 1.67701e-16 0.242966 0.126889 0.235226 0.122827 0.126889 1.67701e-16 0.122827 1.62542e-16 0.391959 0.327431 0.378689 0.316973 0.327431 0.235226 0.316973 0.226924 0.378689 0.316973 0.37135 0.298003 0.316973 0.226924 0.298003 0.224655 0.235226 0.122827 0.226924 0.119083 0.122827 1.62542e-16 0.119083 1.57541e-16 0.226924 0.119083 0.224655 0.112328 0.119083 1.57541e-16 0.112328 1.52694e-16 0.359307 0.224646 0.343038 0.22481 0.224646 0.089986 0.22481 0.0867391 0.343038 0.22481 0.339631 0.211561 0.22481 0.0867391 0.211561 0.0834921 -0.44764 -0.513005 -0.43304 -0.497345 -0.513005 -0.536393 -0.497345 -0.519179 -0.43304 -0.497345 -0.420613 -0.481703 -0.497345 -0.519179 -0.481703 -0.503841 -0.370635 -0.424881 -0.360686 -0.411192 -0.424881 -0.443935 -0.411192 -0.42735 -0.360686 -0.411192 -0.350738 -0.3865 -0.411192 -0.42735 -0.3865 -0.422262 0 0.15303 0 0.153305 0.15303 0.306061 0.153305 0.292844 0 0.153305 0 0.144882 0.153305 0.292844 0.144882 0.289764 -0.536393 -0.512995 -0.519179 -0.497341 -0.512995 -0.44762 -0.497341 -0.433034 -0.519179 -0.497341 -0.503841 -0.481704 -0.497341 -0.433034 -0.481704 -0.420616 0.0899936 0.224643 0.0867277 0.224779 0.224643 0.359292 0.224779 0.342978 0.0867277 0.224779 0.0834618 0.211495 0.224779 0.342978 0.211495 0.339529 -0.443935 -0.424896 -0.42735 -0.411206 -0.424896 -0.370667 -0.411206 -0.360715 -0.42735 -0.411206 -0.422262 -0.386513 -0.411206 -0.360715 -0.386513 -0.350763 0.306111 0.153056 0.292955 0.153374 0.153056 2.08708e-16 0.153374 2.02286e-16 0.292955 0.153374 0.290047 0.145024 0.153374 2.02286e-16 0.145024 1.96063e-16 0 0.135339 0 0.135964 0.135339 0.270678 0.135964 0.262066 0 0.135964 0 0.131723 0.135964 0.262066 0.131723 0.253453 0.27193 0.135965 0.25769 0.135224 0.135965 1.84184e-16 0.135224 1.78517e-16 0.25769 0.135224 0.250724 0.13088 0.135224 1.78517e-16 0.13088 1.73025e-16 -0.288054 -0.211422 -0.278592 -0.211714 -0.211422 -0.13479 -0.211714 -0.129329 -0.278592 -0.211714 -0.26913 -0.20534 -0.211714 -0.129329 -0.20534 -0.123867 0.0643745 0.156698 0.0632737 0.158935 0.156698 0.249022 0.158935 0.241292 0.0632737 0.158935 0.062173 0.156485 0.158935 0.241292 0.156485 0.236694 0.062173 0.156485 0.0626599 0.154284 0.156485 0.236694 0.154284 0.23249 0.0626599 0.154284 0.0631468 0.152582 0.154284 0.23249 0.152582 0.228876 0.316558 0.197694 0.30561 0.198109 0.197694 0.07883 0.198109 0.0751715 0.30561 0.198109 0.294662 0.192527 0.198109 0.0751715 0.192527 0.071513 0.294662 0.192527 0.287342 0.186399 0.192527 0.071513 0.186399 0.0707021 0.287342 0.186399 0.280022 0.174957 0.186399 0.0707021 0.174957 0.0698913 0.371275 0.397928 0.359648 0.385588 0.397928 0.392439 0.385588 0.376988 0.359648 0.385588 0.348021 0.373749 0.385588 0.376988 0.373749 0.366874 0.392439 0.336231 0.376988 0.337506 0.336231 0.280022 0.337506 0.270518 0.376988 0.337506 0.366874 0.328472 0.337506 0.270518 0.328472 0.261013 0.348021 0.373749 0.338769 0.36312 0.373749 0.366874 0.36312 0.35665 0.338769 0.36312 0.329516 0.352957 0.36312 0.35665 0.352957 0.347041 0.366874 0.328472 0.35665 0.319434 0.328472 0.261013 0.319434 0.254654 0.35665 0.319434 0.347041 0.311176 0.319434 0.254654 0.311176 0.248296 0 0.099866 0 0.100037 0.099866 0.199732 0.100037 0.190512 0 0.100037 0 0.0976419 0.100037 0.190512 0.0976419 0.186955 0.199732 0.264624 0.190512 0.266057 0.264624 0.329516 0.266057 0.318006 0.190512 0.266057 0.186955 0.260142 0.266057 0.318006 0.260142 0.311162 0 0.0976419 0 0.0957132 0.0976419 0.186955 0.0957132 0.183206 0 0.0957132 0 0.0939593 0.0957132 0.183206 0.0939593 0.179827 0.186955 0.260142 0.183206 0.254923 0.260142 0.311162 0.254923 0.304726 0.183206 0.254923 0.179827 0.250208 0.254923 0.304726 0.250208 0.29904