# vtk DataFile Version 3.0
#This file was generated by the deal.II library on 2018/12/4 at 0:47:15
ASCII
DATASET UNSTRUCTURED_GRID

POINTS 5260 double
0 0.1875 0
0.0625 0.1875 0
0 0.25 0
0.0625 0.25 0
0.9375 0.1875 0
1 0.1875 0
0.9375 0.25 0
1 0.25 0
0 0.25 0
0.0625 0.25 0
0 0.3125 0
0.0625 0.3125 0
0.3125 0.1875 0
0.375 0.1875 0
0.3125 0.25 0
0.375 0.25 0
0.9375 0.25 0
1 0.25 0
0.9375 0.3125 0
1 0.3125 0
0.3125 0.25 0
0.375 0.25 0
0.3125 0.3125 0
0.375 0.3125 0
0.3125 0.3125 0
0.375 0.3125 0
0.3125 0.375 0
0.375 0.375 0
0.625 0.3125 0
0.6875 0.3125 0
0.625 0.375 0
0.6875 0.375 0
0.3125 0.375 0
0.375 0.375 0
0.3125 0.4375 0
0.375 0.4375 0
0.25 0.4375 0
0.3125 0.4375 0
0.25 0.5 0
0.3125 0.5 0
0.3125 0.4375 0
0.375 0.4375 0
0.3125 0.5 0
0.375 0.5 0
0.3125 0.5 0
0.375 0.5 0
0.3125 0.5625 0
0.375 0.5625 0
0.25 0.5625 0
0.3125 0.5625 0
0.25 0.625 0
0.3125 0.625 0
0.3125 0.5625 0
0.375 0.5625 0
0.3125 0.625 0
0.375 0.625 0
0.375 0.625 0
0.4375 0.625 0
0.375 0.6875 0
0.4375 0.6875 0
0.375 0.6875 0
0.4375 0.6875 0
0.375 0.75 0
0.4375 0.75 0
0 0.75 0
0.0625 0.75 0
0 0.8125 0
0.0625 0.8125 0
0.0625 0.75 0
0.125 0.75 0
0.0625 0.8125 0
0.125 0.8125 0
0 0.8125 0
0.0625 0.8125 0
0 0.875 0
0.0625 0.875 0
0.0625 0.8125 0
0.125 0.8125 0
0.0625 0.875 0
0.125 0.875 0
0.625 0.375 0
0.6875 0.375 0
0.625 0.4375 0
0.6875 0.4375 0
0.625 0.4375 0
0.6875 0.4375 0
0.625 0.5 0
0.6875 0.5 0
0.6875 0.4375 0
0.75 0.4375 0
0.6875 0.5 0
0.75 0.5 0
0 0.375 0
0.0625 0.375 0
0 0.4375 0
0.0625 0.4375 0
0.625 0.5 0
0.6875 0.5 0
0.625 0.5625 0
0.6875 0.5625 0
0.625 0.5625 0
0.6875 0.5625 0
0.625 0.625 0
0.6875 0.625 0
0.6875 0.5625 0
0.75 0.5625 0
0.6875 0.625 0
0.75 0.625 0
0.5625 0.625 0
0.625 0.625 0
0.5625 0.6875 0
0.625 0.6875 0
0.5625 0.6875 0
0.625 0.6875 0
0.5625 0.75 0
0.625 0.75 0
0.875 0.75 0
0.9375 0.75 0
0.875 0.8125 0
0.9375 0.8125 0
0.9375 0.75 0
1 0.75 0
0.9375 0.8125 0
1 0.8125 0
0.875 0.8125 0
0.9375 0.8125 0
0.875 0.875 0
0.9375 0.875 0
0.9375 0.8125 0
1 0.8125 0
0.9375 0.875 0
1 0.875 0
0.9375 0.375 0
1 0.375 0
0.9375 0.4375 0
1 0.4375 0
0 0.5 0
0.0625 0.5 0
0 0.5625 0
0.0625 0.5625 0
0.0625 0.5 0
0.125 0.5 0
0.0625 0.5625 0
0.125 0.5625 0
0.0625 0.5625 0
0.125 0.5625 0
0.0625 0.625 0
0.125 0.625 0
0.1875 0.5625 0
0.25 0.5625 0
0.1875 0.625 0
0.25 0.625 0
0.1875 0.625 0
0.25 0.625 0
0.1875 0.6875 0
0.25 0.6875 0
0.1875 0.6875 0
0.25 0.6875 0
0.1875 0.75 0
0.25 0.75 0
0.25 0.75 0
0.3125 0.75 0
0.25 0.8125 0
0.3125 0.8125 0
0.3125 0.75 0
0.375 0.75 0
0.3125 0.8125 0
0.375 0.8125 0
0.25 0.8125 0
0.3125 0.8125 0
0.25 0.875 0
0.3125 0.875 0
0.3125 0.8125 0
0.375 0.8125 0
0.3125 0.875 0
0.375 0.875 0
0.375 0.75 0
0.4375 0.75 0
0.375 0.8125 0
0.4375 0.8125 0
0.4375 0.75 0
0.5 0.75 0
0.4375 0.8125 0
0.5 0.8125 0
0.375 0.8125 0
0.4375 0.8125 0
0.375 0.875 0
0.4375 0.875 0
0.4375 0.8125 0
0.5 0.8125 0
0.4375 0.875 0
0.5 0.875 0
0.25 0.875 0
0.3125 0.875 0
0.25 0.9375 0
0.3125 0.9375 0
0.3125 0.875 0
0.375 0.875 0
0.3125 0.9375 0
0.375 0.9375 0
0.25 0.9375 0
0.3125 0.9375 0
0.25 1 0
0.3125 1 0
0.3125 0.9375 0
0.375 0.9375 0
0.3125 1 0
0.375 1 0
0.375 0.875 0
0.4375 0.875 0
0.375 0.9375 0
0.4375 0.9375 0
0.4375 0.875 0
0.5 0.875 0
0.4375 0.9375 0
0.5 0.9375 0
0.375 0.9375 0
0.4375 0.9375 0
0.375 1 0
0.4375 1 0
0.4375 0.9375 0
0.5 0.9375 0
0.4375 1 0
0.5 1 0
0.75 0.5625 0
0.8125 0.5625 0
0.75 0.625 0
0.8125 0.625 0
0.875 0.5 0
0.9375 0.5 0
0.875 0.5625 0
0.9375 0.5625 0
0.9375 0.5 0
1 0.5 0
0.9375 0.5625 0
1 0.5625 0
0.75 0.625 0
0.8125 0.625 0
0.75 0.6875 0
0.8125 0.6875 0
0.75 0.6875 0
0.8125 0.6875 0
0.75 0.75 0
0.8125 0.75 0
0.5 0.75 0
0.5625 0.75 0
0.5 0.8125 0
0.5625 0.8125 0
0.5625 0.75 0
0.625 0.75 0
0.5625 0.8125 0
0.625 0.8125 0
0.5 0.8125 0
0.5625 0.8125 0
0.5 0.875 0
0.5625 0.875 0
0.5625 0.8125 0
0.625 0.8125 0
0.5625 0.875 0
0.625 0.875 0
0.625 0.75 0
0.6875 0.75 0
0.625 0.8125 0
0.6875 0.8125 0
0.6875 0.75 0
0.75 0.75 0
0.6875 0.8125 0
0.75 0.8125 0
0.625 0.8125 0
0.6875 0.8125 0
0.625 0.875 0
0.6875 0.875 0
0.6875 0.8125 0
0.75 0.8125 0
0.6875 0.875 0
0.75 0.875 0
0.5 0.875 0
0.5625 0.875 0
0.5 0.9375 0
0.5625 0.9375 0
0.5625 0.875 0
0.625 0.875 0
0.5625 0.9375 0
0.625 0.9375 0
0.5 0.9375 0
0.5625 0.9375 0
0.5 1 0
0.5625 1 0
0.625 0.875 0
0.6875 0.875 0
0.625 0.9375 0
0.6875 0.9375 0
0.625 0.9375 0
0.6875 0.9375 0
0.625 1 0
0.6875 1 0
0.3125 0.625 0
0.375 0.625 0
0.3125 0.6875 0
0.375 0.6875 0
0.3125 0.6875 0
0.375 0.6875 0
0.3125 0.75 0
0.375 0.75 0
0.625 0.625 0
0.6875 0.625 0
0.625 0.6875 0
0.6875 0.6875 0
0.625 0.6875 0
0.6875 0.6875 0
0.625 0.75 0
0.6875 0.75 0
0 0.125 0
0.03125 0.125 0
0 0.15625 0
0.03125 0.15625 0
0.03125 0.125 0
0.0625 0.125 0
0.03125 0.15625 0
0.0625 0.15625 0
0 0.15625 0
0.03125 0.15625 0
0 0.1875 0
0.03125 0.1875 0
0.03125 0.15625 0
0.0625 0.15625 0
0.03125 0.1875 0
0.0625 0.1875 0
0.125 0 0
0.15625 0 0
0.125 0.03125 0
0.15625 0.03125 0
0.15625 0 0
0.1875 0 0
0.15625 0.03125 0
0.1875 0.03125 0
0.15625 0.03125 0
0.1875 0.03125 0
0.15625 0.0625 0
0.1875 0.0625 0
0.125 0.09375 0
0.15625 0.09375 0
0.125 0.125 0
0.15625 0.125 0
0.0625 0.15625 0
0.09375 0.15625 0
0.0625 0.1875 0
0.09375 0.1875 0
0.3125 0 0
0.34375 0 0
0.3125 0.03125 0
0.34375 0.03125 0
0.34375 0 0
0.375 0 0
0.34375 0.03125 0
0.375 0.03125 0
0.3125 0.03125 0
0.34375 0.03125 0
0.3125 0.0625 0
0.34375 0.0625 0
0.34375 0.03125 0
0.375 0.03125 0
0.34375 0.0625 0
0.375 0.0625 0
0.125 0.125 0
0.15625 0.125 0
0.125 0.15625 0
0.15625 0.15625 0
0.125 0.15625 0
0.15625 0.15625 0
0.125 0.1875 0
0.15625 0.1875 0
0.0625 0.1875 0
0.09375 0.1875 0
0.0625 0.21875 0
0.09375 0.21875 0
0.0625 0.21875 0
0.09375 0.21875 0
0.0625 0.25 0
0.09375 0.25 0
0.125 0.1875 0
0.15625 0.1875 0
0.125 0.21875 0
0.15625 0.21875 0
0.28125 0 0
0.3125 0 0
0.28125 0.03125 0
0.3125 0.03125 0
0.28125 0.03125 0
0.3125 0.03125 0
0.28125 0.0625 0
0.3125 0.0625 0
0.28125 0.0625 0
0.3125 0.0625 0
0.28125 0.09375 0
0.3125 0.09375 0
0.28125 0.09375 0
0.3125 0.09375 0
0.28125 0.125 0
0.3125 0.125 0
0.46875 0 0
0.5 0 0
0.46875 0.03125 0
0.5 0.03125 0
0.375 0.25 0
0.40625 0.25 0
0.375 0.28125 0
0.40625 0.28125 0
0.375 0.28125 0
0.40625 0.28125 0
0.375 0.3125 0
0.40625 0.3125 0
0.375 0.3125 0
0.40625 0.3125 0
0.375 0.34375 0
0.40625 0.34375 0
0.375 0.34375 0
0.40625 0.34375 0
0.375 0.375 0
0.40625 0.375 0
0 0 0
0.03125 0 0
0 0.03125 0
0.03125 0.03125 0
0.03125 0 0
0.0625 0 0
0.03125 0.03125 0
0.0625 0.03125 0
0 0.03125 0
0.03125 0.03125 0
0 0.0625 0
0.03125 0.0625 0
0.03125 0.03125 0
0.0625 0.03125 0
0.03125 0.0625 0
0.0625 0.0625 0
0 0.0625 0
0.03125 0.0625 0
0 0.09375 0
0.03125 0.09375 0
0.03125 0.0625 0
0.0625 0.0625 0
0.03125 0.09375 0
0.0625 0.09375 0
0 0.09375 0
0.03125 0.09375 0
0 0.125 0
0.03125 0.125 0
0.03125 0.09375 0
0.0625 0.09375 0
0.03125 0.125 0
0.0625 0.125 0
0.6875 0 0
0.71875 0 0
0.6875 0.03125 0
0.71875 0.03125 0
0.6875 0.03125 0
0.71875 0.03125 0
0.6875 0.0625 0
0.71875 0.0625 0
0.6875 0.0625 0
0.71875 0.0625 0
0.6875 0.09375 0
0.71875 0.09375 0
0.6875 0.09375 0
0.71875 0.09375 0
0.6875 0.125 0
0.71875 0.125 0
0.90625 0.15625 0
0.9375 0.15625 0
0.90625 0.1875 0
0.9375 0.1875 0
0.9375 0.125 0
0.96875 0.125 0
0.9375 0.15625 0
0.96875 0.15625 0
0.96875 0.125 0
1 0.125 0
0.96875 0.15625 0
1 0.15625 0
0.9375 0.15625 0
0.96875 0.15625 0
0.9375 0.1875 0
0.96875 0.1875 0
0.96875 0.15625 0
1 0.15625 0
0.96875 0.1875 0
1 0.1875 0
0.90625 0.1875 0
0.9375 0.1875 0
0.90625 0.21875 0
0.9375 0.21875 0
0.90625 0.21875 0
0.9375 0.21875 0
0.90625 0.25 0
0.9375 0.25 0
0.3125 0.0625 0
0.34375 0.0625 0
0.3125 0.09375 0
0.34375 0.09375 0
0.34375 0.0625 0
0.375 0.0625 0
0.34375 0.09375 0
0.375 0.09375 0
0.3125 0.09375 0
0.34375 0.09375 0
0.3125 0.125 0
0.34375 0.125 0
0.34375 0.09375 0
0.375 0.09375 0
0.34375 0.125 0
0.375 0.125 0
0.5 0 0
0.53125 0 0
0.5 0.03125 0
0.53125 0.03125 0
0.59375 0.25 0
0.625 0.25 0
0.59375 0.28125 0
0.625 0.28125 0
0.59375 0.28125 0
0.625 0.28125 0
0.59375 0.3125 0
0.625 0.3125 0
0.59375 0.3125 0
0.625 0.3125 0
0.59375 0.34375 0
0.625 0.34375 0
0.59375 0.34375 0
0.625 0.34375 0
0.59375 0.375 0
0.625 0.375 0
0.4375 0.3125 0
0.46875 0.3125 0
0.4375 0.34375 0
0.46875 0.34375 0
0.46875 0.3125 0
0.5 0.3125 0
0.46875 0.34375 0
0.5 0.34375 0
0.4375 0.34375 0
0.46875 0.34375 0
0.4375 0.375 0
0.46875 0.375 0
0.46875 0.34375 0
0.5 0.34375 0
0.46875 0.375 0
0.5 0.375 0
0.0625 0.25 0
0.09375 0.25 0
0.0625 0.28125 0
0.09375 0.28125 0
0.0625 0.28125 0
0.09375 0.28125 0
0.0625 0.3125 0
0.09375 0.3125 0
0.8125 0 0
0.84375 0 0
0.8125 0.03125 0
0.84375 0.03125 0
0.84375 0 0
0.875 0 0
0.84375 0.03125 0
0.875 0.03125 0
0.8125 0.03125 0
0.84375 0.03125 0
0.8125 0.0625 0
0.84375 0.0625 0
0.28125 0.125 0
0.3125 0.125 0
0.28125 0.15625 0
0.3125 0.15625 0
0.28125 0.15625 0
0.3125 0.15625 0
0.28125 0.1875 0
0.3125 0.1875 0
0.84375 0.09375 0
0.875 0.09375 0
0.84375 0.125 0
0.875 0.125 0
0.28125 0.1875 0
0.3125 0.1875 0
0.28125 0.21875 0
0.3125 0.21875 0
0.28125 0.21875 0
0.3125 0.21875 0
0.28125 0.25 0
0.3125 0.25 0
0.84375 0.125 0
0.875 0.125 0
0.84375 0.15625 0
0.875 0.15625 0
0.84375 0.15625 0
0.875 0.15625 0
0.84375 0.1875 0
0.875 0.1875 0
0.1875 0.0625 0
0.21875 0.0625 0
0.1875 0.09375 0
0.21875 0.09375 0
0.21875 0.0625 0
0.25 0.0625 0
0.21875 0.09375 0
0.25 0.09375 0
0.1875 0.09375 0
0.21875 0.09375 0
0.1875 0.125 0
0.21875 0.125 0
0.21875 0.09375 0
0.25 0.09375 0
0.21875 0.125 0
0.25 0.125 0
0.84375 0.1875 0
0.875 0.1875 0
0.84375 0.21875 0
0.875 0.21875 0
0.375 0.1875 0
0.40625 0.1875 0
0.375 0.21875 0
0.40625 0.21875 0
0.375 0.21875 0
0.40625 0.21875 0
0.375 0.25 0
0.40625 0.25 0
0.90625 0.25 0
0.9375 0.25 0
0.90625 0.28125 0
0.9375 0.28125 0
0.90625 0.28125 0
0.9375 0.28125 0
0.90625 0.3125 0
0.9375 0.3125 0
0.625 0 0
0.65625 0 0
0.625 0.03125 0
0.65625 0.03125 0
0.65625 0 0
0.6875 0 0
0.65625 0.03125 0
0.6875 0.03125 0
0.625 0.03125 0
0.65625 0.03125 0
0.625 0.0625 0
0.65625 0.0625 0
0.65625 0.03125 0
0.6875 0.03125 0
0.65625 0.0625 0
0.6875 0.0625 0
0.28125 0.25 0
0.3125 0.25 0
0.28125 0.28125 0
0.3125 0.28125 0
0.25 0.28125 0
0.28125 0.28125 0
0.25 0.3125 0
0.28125 0.3125 0
[...]
POINT_DATA 5260
SCALARS U double 1
LOOKUP_TABLE default
0 0.401736 0 0.374237 0.40174 2.6906e-16 0.37424 2.52759e-16 0 0.374237 0 0.351111 0.133723 -0.283567 0.12337 -0.267895 0.37424 2.52759e-16 0.351114 2.37445e-16 0.12337 -0.267895 0.11389 -0.253534 0.11389 -0.253534 0.104104 -0.239822 -0.253194 0.113821 -0.239604 0.104201 0.104104 -0.239822 0.0972967 -0.226772 0.384465 0.0972967 0.359374 0.0893921 0.0972967 -0.226772 0.0893921 -0.214107 0.0893921 -0.214107 0.0827481 -0.200946 0.339075 0.0827481 0.315854 0.0780456 0.0827481 -0.200946 0.0780456 -0.190679 -0.190679 -0.397666 -0.178419 -0.371317 -0.178419 -0.371317 -0.166814 -0.351223 0 0.224402 0 0.210106 0.224402 0.370613 0.210106 0.346927 0 0.210106 0 0.199695 0.210106 0.346927 0.199695 0.328784 -0.239604 0.104201 -0.226698 0.0973486 -0.226698 0.0973486 -0.214085 0.0894062 0.0973486 0.384486 0.0894062 0.359374 0 0.328476 0 0.306633 -0.214085 0.0894062 -0.200953 0.0827344 -0.200953 0.0827344 -0.190718 0.0779928 0.0827344 0.339031 0.0779928 0.315778 -0.397686 -0.190718 -0.371354 -0.178501 -0.371354 -0.178501 -0.351247 -0.16692 0.370645 0.224457 0.346947 0.210135 0.224457 1.53306e-16 0.210135 1.44018e-16 0.346947 0.210135 0.328817 0.199725 0.210135 1.44018e-16 0.199725 1.35292e-16 0.328481 2.23059e-16 0.306654 2.09544e-16 0 0.289378 0 0.269935 0.289378 0.478945 0.269935 0.447781 0.269935 0.447781 0.253054 0.421396 0.475269 0.339075 0.443552 0.315854 0.443552 0.315854 0.415835 0.294121 0.415835 0.294121 0.392144 0.279943 0.279943 0.0697656 0.260696 0.066618 0.0697656 -0.166814 0.066618 -0.1553 0.260696 0.066618 0.247928 0.0644665 0.066618 -0.1553 0.0644665 -0.144362 -0.166814 -0.351223 -0.1553 -0.32795 -0.351223 -0.422608 -0.32795 -0.392632 -0.1553 -0.32795 -0.144362 -0.306824 -0.32795 -0.392632 -0.306824 -0.367859 0.247928 0.0644665 0.237092 0.0636114 0.0644665 -0.144362 0.0636114 -0.134088 0.237092 0.0636114 0.229794 0.0633999 0.0636114 -0.134088 0.0633999 -0.124363 -0.144362 -0.306824 -0.134088 -0.287822 -0.306824 -0.367859 -0.287822 -0.345658 -0.134088 -0.287822 -0.124363 -0.270209 -0.287822 -0.345658 -0.270209 -0.324977 0.339031 0.475054 0.315778 0.443117 0.479011 0.289514 0.44883 0.271071 0.289514 1.96849e-16 0.271071 1.84922e-16 0.315778 0.443117 0.293988 0.415723 0.293988 0.415723 0.279741 0.392068 -0.422608 -0.351247 -0.392632 -0.327898 -0.351247 -0.16692 -0.327898 -0.155299 -0.392632 -0.327898 -0.367859 -0.306814 -0.327898 -0.155299 -0.306814 -0.144374 -0.16692 0.0695554 -0.155299 0.066447 0.0695554 0.279741 0.066447 0.260459 -0.155299 0.066447 -0.144374 0.0646205 0.066447 0.260459 0.0646205 0.248563 -0.367859 -0.306814 -0.345658 -0.288492 -0.306814 -0.144374 -0.288492 -0.13468 -0.345658 -0.288492 -0.324977 -0.270209 -0.144374 0.0646205 -0.13468 0.0621858 -0.13468 0.0621858 -0.124363 0.0633999 0.0780456 -0.190679 0.0710403 -0.178419 0.0710403 -0.178419 0.0697656 -0.166814 -0.190718 0.0779928 -0.178501 0.0709261 -0.178501 0.0709261 -0.16692 0.0695554 0 0.22369 0 0.215523 0.22369 0.427536 0.215523 0.413609 0 0.215523 0 0.200868 0.215523 0.413609 0.200868 0.401736 0.816137 0.879126 0.789464 0.849918 0.879126 0.866406 0.849918 0.835078 0.849918 0.835078 0.82026 0.808195 0.737114 0.793053 0.71165 0.765629 0.413609 0.576594 0.401736 0.556946 0.172339 -0.0865864 0.165784 -0.084005 -0.0865864 -0.338055 -0.084005 -0.32636 0.165784 -0.084005 0.159248 -0.0821715 -0.084005 -0.32636 -0.0821715 -0.316287 0.71165 0.765629 0.68783 0.739685 0.68783 0.739685 0.664926 0.714876 0.401736 0.556946 0.387986 0.538255 0.387986 0.538255 0.374237 0.519886 0.664926 0.714876 0.643128 0.691411 0.416422 0.172339 0.401013 0.165784 0.401013 0.165784 0.386726 0.159248 0.386726 0.159248 0.372841 0.152801 0.372841 0.152801 0.359215 0.146466 -0.845342 -0.88338 -0.816586 -0.854455 -0.267895 -0.437389 -0.260714 -0.424542 -0.260714 -0.424542 -0.253534 -0.412692 -0.253534 -0.412692 -0.246678 -0.401076 -0.246678 -0.401076 -0.239822 -0.388937 0 0.256432 0 0.247845 0.256432 0.49078 0.247845 0.474044 0 0.247845 0 0.239546 0.247845 0.474044 0.239546 0.458134 0 0.239546 0 0.231494 0.239546 0.458134 0.231494 0.442788 0 0.231494 0 0.22369 0.231494 0.442788 0.22369 0.427536 0.172339 0.416422 0.165829 0.401046 0.165829 0.401046 0.159339 0.386787 0.159339 0.386787 0.152933 0.372922 0.152933 0.372922 0.146618 0.359285 0.5766 0.413614 0.556951 0.40174 0.427542 0.223693 0.413614 0.215526 0.223693 2.86413e-16 0.215526 2.77601e-16 0.413614 0.215526 0.40174 0.20087 0.215526 2.77601e-16 0.20087 2.6906e-16 0.556951 0.40174 0.538258 0.38799 0.538258 0.38799 0.519888 0.37424 0.159248 -0.0821715 0.152801 -0.0807456 -0.0821715 -0.316287 -0.0807456 -0.307189 0.152801 -0.0807456 0.146466 -0.0795066 -0.0807456 -0.307189 -0.0795066 -0.298632 -0.88338 -0.845342 -0.854455 -0.816558 -0.43584 -0.266661 -0.423049 -0.259415 -0.423049 -0.259415 -0.412021 -0.253194 -0.412021 -0.253194 -0.400716 -0.246399 -0.400716 -0.246399 -0.388716 -0.239604 -0.536769 -0.614681 -0.521057 -0.596239 -0.614681 -0.642552 -0.596239 -0.623636 -0.521057 -0.596239 -0.505699 -0.579136 -0.596239 -0.623636 -0.579136 -0.605434 0.374237 0.519886 0.362674 0.502045 0.362674 0.502045 0.351111 0.485938 0.866406 0.879126 0.835088 0.849924 0.879126 0.816137 0.849924 0.789468 0.835088 0.849924 0.80821 0.82027 0.359215 0.146466 0.346062 0.140508 0.346062 0.140508 0.333607 0.133723 0.793064 0.737123 0.765638 0.711659 0.333607 0.133723 0.321675 0.128547 0.321675 0.128547 0.309948 0.12337 0.765638 0.711659 0.739689 0.687836 0.739689 0.687836 0.714874 0.664928 0.808195 0.724403 0.778338 0.697364 0.724403 0.580887 0.697364 0.559721 0.778338 0.697364 0.751896 0.672532 0.697364 0.559721 0.672532 0.539602 0.714874 0.664928 0.691403 0.643127 -0.283567 -0.463673 -0.275731 -0.450097 -0.275731 -0.450097 -0.267895 -0.437389 0.519888 0.37424 0.502047 0.362677 0.502047 0.362677 0.48594 0.351114 -0.338055 -0.0865864 -0.326295 -0.0839479 -0.0865864 0.172339 -0.0839479 0.165829 -0.326295 -0.0839479 -0.316149 -0.0820525 -0.0839479 0.165829 -0.0820525 0.159339 0.309948 0.12337 0.299962 0.11863 0.452894 0.299962 0.439207 0.2898 0.299962 0.11863 0.2898 0.11389 0.2898 0.11389 0.278774 0.108997 0.278774 0.108997 0.269777 0.104104 0.146618 0.359285 0.140498 0.346204 0.140498 0.346204 0.134652 0.333759 0.134652 0.333759 0.129095 0.321885 0.129095 0.321885 0.123939 0.310117 0.49078 0.256432 0.474046 0.247846 0.256432 3.24548e-16 0.247846 3.14563e-16 0.474046 0.247846 0.458138 0.239548 0.247846 3.14563e-16 0.239548 3.04885e-16 0.458138 0.239548 0.442793 0.231497 0.239548 3.04885e-16 0.231497 2.95505e-16 0.442793 0.231497 0.427542 0.223693 0.231497 2.95505e-16 0.223693 2.86413e-16 0.123939 0.310117 0.119227 0.300059 0.119227 0.300059 0.113821 0.289846 0.300059 0.452895 0.289846 0.439201 0.113821 0.289846 0.109011 0.278776 0.109011 0.278776 0.104201 0.269807 0.410065 0.269777 0.394979 0.259115 0.269777 0.104104 0.259115 0.1007 0.394979 0.259115 0.384465 0.240881 0.259115 0.1007 0.240881 0.0972967 -0.316149 -0.0820525 -0.306955 -0.0805556 -0.0820525 0.159339 -0.0805556 0.152933 -0.306955 -0.0805556 -0.298253 -0.0792597 -0.0805556 0.152933 -0.0792597 0.146618 -0.642552 -0.614467 -0.623636 -0.596076 -0.614467 -0.536258 -0.596076 -0.520754 -0.623636 -0.596076 -0.605434 -0.579034 -0.596076 -0.520754 -0.579034 -0.505515 -0.214107 -0.346194 -0.207526 -0.33471 -0.207526 -0.33471 -0.200946 -0.325341 -0.200946 -0.325341 -0.195813 -0.314131 -0.325341 -0.421474 -0.314131 -0.407238 -0.195813 -0.314131 -0.190679 -0.294173 -0.314131 -0.407238 -0.294173 -0.397666 -0.421474 -0.481276 -0.407238 -0.467426 -0.407238 -0.467426 -0.397666 -0.453573 -0.467426 -0.488455 -0.453573 -0.473063 -0.239822 -0.388937 -0.233297 -0.378219 -0.233297 -0.378219 -0.226772 -0.366958 -0.378219 -0.489993 -0.366958 -0.476268 -0.226772 -0.366958 -0.220439 -0.356401 -0.366958 -0.476268 -0.356401 -0.46209 -0.220439 -0.356401 -0.214107 -0.346194 -0.356401 -0.46209 -0.346194 -0.448547 -0.476268 -0.545237 -0.46209 -0.528105 -0.46209 -0.528105 -0.448547 -0.512557 0.751896 0.672532 0.726204 0.649312 0.672532 0.539602 0.649312 0.520611 0.726204 0.649312 0.701667 0.627177 0.649312 0.520611 0.627177 0.502581 -0.397666 -0.453573 -0.384492 -0.439144 -0.453573 -0.473063 -0.439144 -0.458669 -0.384492 -0.439144 -0.371317 -0.424478 0.701667 0.627177 0.678134 0.606217 0.627177 0.502581 0.606217 0.485518 0.678134 0.606217 0.655454 0.586841 0.606217 0.485518 0.586841 0.469203 -0.338055 -0.56041 -0.32636 -0.539532 -0.56041 -0.734504 -0.539532 -0.708368 -0.32636 -0.539532 -0.316287 -0.52235 -0.539532 -0.708368 -0.52235 -0.686382 -0.316287 -0.52235 -0.307189 -0.506429 -0.52235 -0.686382 -0.506429 -0.664353 -0.307189 -0.506429 -0.298632 -0.491192 -0.506429 -0.664353 -0.491192 -0.643533 -0.388716 -0.239604 -0.378084 -0.233151 -0.489883 -0.378084 -0.476204 -0.366879 -0.378084 -0.233151 -0.366879 -0.226698 -0.545202 -0.476204 -0.528086 -0.462055 -0.528086 -0.462055 -0.512547 -0.44853 -0.476204 -0.366879 -0.462055 -0.356357 -0.366879 -0.226698 -0.356357 -0.220392 -0.462055 -0.356357 -0.44853 -0.346171 -0.356357 -0.220392 -0.346171 -0.214085 0.104201 0.269807 0.100775 0.259157 0.269807 0.410073 0.259157 0.394998 0.100775 0.259157 0.0973486 0.240917 0.259157 0.394998 0.240917 0.384486 -0.686382 -0.789879 -0.664353 -0.763171 -0.789879 -0.826464 -0.763171 -0.7991 -0.664353 -0.763171 -0.643533 -0.738611 -0.763171 -0.7991 -0.738611 -0.772989 0 0.175556 0 0.175336 0.175556 0.351111 0.175336 0.336988 0 0.175336 0 0.164238 0.175336 0.336988 0.164238 0.328476 0.328476 0.454114 0.317554 0.439845 0.317554 0.439845 0.306633 0.425092 0.439845 0.524504 0.425092 0.507164 0.306633 0.425092 0.293201 0.4104 0.425092 0.507164 0.4104 0.489287 0.293201 0.4104 0.289378 0.384161 0.4104 0.489287 0.384161 0.478945 -0.346171 -0.214085 -0.334703 -0.207519 -0.334703 -0.207519 -0.325346 -0.200953 -0.481278 -0.421477 -0.467431 -0.407249 -0.488455 -0.467431 -0.473063 -0.453583 -0.467431 -0.407249 -0.453583 -0.397686 -0.421477 -0.325346 -0.407249 -0.314148 -0.325346 -0.200953 -0.314148 -0.195835 -0.407249 -0.314148 -0.397686 -0.294202 -0.314148 -0.195835 -0.294202 -0.190718 0.351111 0.485938 0.336988 0.469893 0.485938 0.581634 0.469893 0.562013 0.336988 0.469893 0.328476 0.454114 0.469893 0.562013 0.454114 0.543824 -0.473063 -0.453583 -0.458669 -0.439158 -0.453583 -0.397686 -0.439158 -0.38452 -0.439158 -0.38452 -0.424494 -0.371354 0.581634 0.624129 0.562013 0.603325 0.624129 0.614365 0.603325 0.594141 0.562013 0.603325 0.543824 0.58387 0.603325 0.594141 0.58387 0.575084 0.614365 0.549633 0.594141 0.531167 0.549633 0.439207 0.531167 0.42362 0.594141 0.531167 0.575084 0.51354 0.531167 0.42362 0.51354 0.410065 0.51354 0.410065 0.496239 0.394979 0.496239 0.394979 0.480457 0.384465 0.480457 0.384465 0.466398 0.371919 0.520243 0.466398 0.502973 0.4507 0.466398 0.371919 0.4507 0.359374 0.410073 0.513541 0.394998 0.496249 0.394998 0.496249 0.384486 0.480471 0.384486 0.480471 0.37193 0.466411 0.37193 0.466411 0.359374 0.450695 0.466411 0.520265 0.450695 0.502996 0.146466 -0.0795066 0.140508 -0.0783575 -0.0795066 -0.298632 -0.0783575 -0.290411 0.140508 -0.0783575 0.133723 -0.074922 -0.0783575 -0.290411 -0.074922 -0.283567 -0.298632 -0.491192 -0.290411 -0.476904 -0.491192 -0.643533 -0.476904 -0.623951 -0.290411 -0.476904 -0.283567 -0.463673 -0.476904 -0.623951 -0.463673 -0.60556 0.454121 0.328481 0.439857 0.317567 0.524516 0.439857 0.507187 0.425116 0.439857 0.317567 0.425116 0.306654 -0.643533 -0.738611 -0.623951 -0.715575 -0.738611 -0.772989 -0.715575 -0.748635 -0.623951 -0.715575 -0.60556 -0.69356 -0.715575 -0.748635 -0.69356 -0.725565 0.507187 0.425116 0.489331 0.41045 0.425116 0.306654 0.41045 0.293247 0.489331 0.41045 0.479011 0.384263 0.41045 0.293247 0.384263 0.289514 -0.60556 -0.69356 -0.586544 -0.672555 -0.69356 -0.725565 -0.672555 -0.703681 -0.586544 -0.672555 -0.569556 -0.652688 -0.672555 -0.703681 -0.652688 -0.682632 0.439201 0.549613 0.423617 0.531157 0.549613 0.614349 0.531157 0.594132 0.423617 0.531157 0.410073 0.513541 0.531157 0.594132 0.513541 0.575084 0.478945 0.512552 0.463363 0.497644 0.463363 0.497644 0.447781 0.481876 0.497644 0.486849 0.481876 0.475269 0.502973 0.4507 0.486849 0.435138 0.4507 0.359374 0.435138 0.343131 0.486849 0.435138 0.475269 0.407172 0.435138 0.343131 0.407172 0.339075 0.447781 0.481876 0.434588 0.466928 0.481876 0.475269 0.466928 0.45941 0.434588 0.466928 0.421396 0.45189 0.466928 0.45941 0.45189 0.443552 0.614349 0.624121 0.594132 0.603322 0.624121 0.581633 0.603322 0.562014 0.594132 0.603322 0.575084 0.583872 0.603322 0.562014 0.583872 0.54383 0.45189 0.443552 0.435937 0.429693 0.435937 0.429693 0.422223 0.415835 0.581633 0.48594 0.562014 0.469896 0.48594 0.351114 0.469896 0.336992 0.562014 0.469896 0.54383 0.454121 0.469896 0.336992 0.454121 0.328481 0.422223 0.415835 0.408973 0.403989 0.408973 0.403989 0.396433 0.392144 0.351114 0.175557 0.336992 0.175338 0.175557 2.37445e-16 0.175338 2.30139e-16 0.336992 0.175338 0.328481 0.16424 0.175338 2.30139e-16 0.16424 2.23059e-16 -0.734504 -0.56041 -0.708319 -0.53947 -0.56041 -0.338055 -0.53947 -0.326295 -0.708319 -0.53947 -0.68627 -0.522214 -0.53947 -0.326295 -0.522214 -0.316149 -0.826464 -0.789816 -0.7991 -0.763054 -0.789816 -0.68627 -0.763054 -0.664147 -0.7991 -0.763054 -0.772989 -0.738415 -0.763054 -0.664147 -0.738415 -0.643173 -0.68627 -0.522214 -0.664147 -0.506184 -0.522214 -0.316149 -0.506184 -0.306955 -0.664147 -0.506184 -0.643173 -0.490778 -0.506184 -0.306955 -0.490778 -0.298253 -0.772989 -0.738415 -0.748635 -0.715272 -0.738415 -0.643173 -0.715272 -0.623342 -0.748635 -0.715272 -0.725565 -0.693349 -0.715272 -0.623342 -0.693349 -0.604478 -0.643173 -0.490778 -0.623342 -0.476082 -0.490778 -0.298253 -0.476082 -0.289915 -0.623342 -0.476082 -0.604478 -0.462033 -0.476082 -0.289915 -0.462033 -0.281894 -0.725565 -0.693349 -0.703681 -0.672601 -0.693349 -0.604478 -0.672601 -0.58662 -0.703681 -0.672601 -0.682632 -0.652811 -0.672601 -0.58662 -0.652811 -0.56975 -0.604478 -0.462033 -0.58662 -0.448666 -0.462033 -0.281894 -0.448666 -0.274169 -0.58662 -0.448666 -0.56975 -0.43584 -0.448666 -0.274169 -0.43584 -0.266661 -0.298253 -0.0792597 -0.289915 -0.0780469 -0.0792597 0.146618 -0.0780469 0.140498 -0.289915 -0.0780469 -0.281894 -0.0768573 -0.0780469 0.140498 -0.0768573 0.134652 -0.281894 -0.0768573 -0.274169 -0.0756283 -0.0768573 0.134652 -0.0756283 0.129095 -0.274169 -0.0756283 -0.266661 -0.0743186 -0.0756283 0.129095 -0.0743186 0.123939 0.580926 0.724426 0.559766 0.69739 0.724426 0.80821 0.69739 0.778353 0.559766 0.69739 0.539646 0.672553 0.69739 0.778353 0.672553 0.751907 0.539646 0.672553 0.520651 0.64932 0.672553 0.751907 0.64932 0.726206 0.520651 0.64932 0.502615 0.627172 0.64932 0.726206 0.627172 0.70166 0.502615 0.627172 0.485547 0.606202 0.627172 0.70166 0.606202 0.678118 0.485547 0.606202 0.469219 0.586818 0.606202 0.678118 0.586818 0.655433 0.359374 0.450695 0.343105 0.435093 0.450695 0.502996 0.435093 0.486793 0.343105 0.435093 0.339031 0.407042 0.435093 0.486793 0.407042 0.475054 0.512647 0.479011 0.497769 0.463921 0.486793 0.497769 0.475054 0.481504 0.497769 0.463921 0.481504 0.44883 -0.266661 -0.0743186 -0.259415 -0.0728864 -0.0743186 0.123939 -0.0728864 0.119227 -0.259415 -0.0728864 -0.253194 -0.0696864 -0.0728864 0.119227 -0.0696864 0.113821 0.475054 0.481504 0.459086 0.466218 0.481504 0.44883 0.466218 0.430942 0.459086 0.466218 0.443117 0.449956 0 0.131089 0 0.12665 0.131089 0.253054 0.12665 0.241446 0 0.12665 0 0.122258 0.12665 0.241446 0.122258 0.234504 0.44883 0.359951 0.430942 0.359705 0.359951 0.271071 0.359705 0.257373 0.430942 0.359705 0.417138 0.348017 0.359705 0.257373 0.348017 0.250316 0.253054 0.337225 0.241446 0.336254 0.337225 0.421396 0.336254 0.402838 0.241446 0.336254 0.234504 0.32561 0.336254 0.402838 0.32561 0.39108 0.443117 0.449956 0.42942 0.435894 0.42942 0.435894 0.415723 0.422255 0 0.122258 0 0.11871 0.122258 0.234504 0.11871 0.226543 0 0.11871 0 0.112201 0.11871 0.226543 0.112201 0.224402 0.415723 0.422255 0.403896 0.408975 0.403896 0.408975 0.392068 0.396414 0.234504 0.32561 0.226543 0.315829 0.32561 0.39108 0.315829 0.378034 0.226543 0.315829 0.224402 0.297508 0.315829 0.378034 0.297508 0.370613 0.417138 0.348017 0.404082 0.336815 0.348017 0.250316 0.336815 0.242409 0.404082 0.336815 0.391246 0.32598 0.336815 0.242409 0.32598 0.234713 0.250316 0.130394 0.242409 0.126409 0.130394 1.73718e-16 0.126409 1.68374e-16 0.242409 0.126409 0.234713 0.122381 0.126409 1.68374e-16 0.122381 1.63193e-16 0.391246 0.32598 0.378118 0.315942 0.32598 0.234713 0.315942 0.226651 0.378118 0.315942 0.370645 0.297551 0.315942 0.226651 0.297551 0.224457 0.234713 0.122381 0.226651 0.118767 0.122381 1.63193e-16 0.118767 1.58172e-16 0.226651 0.118767 0.224457 0.112229 0.118767 1.58172e-16 0.112229 1.53306e-16 0.359374 0.224383 0.343131 0.224082 0.224383 0.0893921 0.224082 0.0860701 0.343131 0.224082 0.339075 0.210912 0.224082 0.0860701 0.210912 0.0827481 -0.448547 -0.512557 -0.433905 -0.496814 -0.512557 -0.53656 -0.496814 -0.519421 -0.433905 -0.496814 -0.421474 -0.481276 -0.496814 -0.519421 -0.481276 -0.504008 -0.371317 -0.424478 -0.36127 -0.410961 -0.424478 -0.444141 -0.410961 -0.42788 -0.36127 -0.410961 -0.351223 -0.386915 -0.410961 -0.42788 -0.386915 -0.422608 0 0.153316 0 0.153116 0.153316 0.306633 0.153116 0.293201 0 0.153116 0 0.144689 0.153116 0.293201 0.144689 0.289378 -0.53656 -0.512547 -0.519421 -0.49681 -0.512547 -0.44853 -0.49681 -0.433899 -0.519421 -0.49681 -0.504008 -0.481278 -0.49681 -0.433899 -0.481278 -0.421477 0.0894062 0.22439 0.0860703 0.224073 0.22439 0.359374 0.224073 0.343105 0.0860703 0.224073 0.0827344 0.210882 0.224073 0.343105 0.210882 0.339031 -0.444141 -0.424494 -0.42788 -0.410976 -0.424494 -0.371354 -0.410976 -0.3613 -0.42788 -0.410976 -0.422608 -0.386927 -0.410976 -0.3613 -0.386927 -0.351247 0.306654 0.153327 0.293247 0.153146 0.153327 2.09544e-16 0.153146 2.03097e-16 0.293247 0.153146 0.289514 0.144757 0.153146 2.03097e-16 0.144757 1.96849e-16 0 0.134968 0 0.135259 0.134968 0.269935 0.135259 0.261495 0 0.135259 0 0.131089 0.135259 0.261495 0.131089 0.253054 0.271071 0.135536 0.257373 0.134671 0.135536 1.84922e-16 0.134671 1.79233e-16 0.257373 0.134671 0.250316 0.130394 0.134671 1.79233e-16 0.130394 1.73718e-16 -0.288492 -0.211586 -0.27935 -0.211568 -0.211586 -0.13468 -0.211568 -0.129522 -0.27935 -0.211568 -0.270209 -0.206163 -0.211568 -0.129522 -0.206163 -0.124363 0.0646205 0.156592 0.0634031 0.15863 0.156592 0.248563 0.15863 0.240832 0.0634031 0.15863 0.0621858 0.156046 0.15863 0.240832 0.156046 0.236247 0.0621858 0.156046 0.0627929 0.153978 0.156046 0.236247 0.153978 0.23238 0.0627929 0.153978 0.0633999 0.153193 0.153978 0.23238 0.153193 0.229794 0.315854 0.19695 0.304988 0.196899 0.19695 0.0780456 0.196899 0.074543 0.304988 0.196899 0.294121 0.191317 0.196899 0.074543 0.191317 0.0710403 0.294121 0.191317 0.287032 0.18559 0.191317 0.0710403 0.18559 0.0704029 0.287032 0.18559 0.279943 0.174854 0.18559 0.0704029 0.174854 0.0697656 0.370613 0.396433 0.35877 0.383627 0.396433 0.392144 0.383627 0.376146 0.35877 0.383627 0.346927 0.371534 0.383627 0.376146 0.371534 0.365559 0.392144 0.336044 0.376146 0.336484 0.336044 0.279943 0.336484 0.27032 0.376146 0.336484 0.365559 0.326918 0.336484 0.27032 0.326918 0.260696 0.346927 0.371534 0.337856 0.360976 0.371534 0.365559 0.360976 0.355223 0.337856 0.360976 0.328784 0.35104 0.360976 0.355223 0.35104 0.34568 0.365559 0.326918 0.355223 0.317777 0.326918 0.260696 0.317777 0.254312 0.355223 0.317777 0.34568 0.309543 0.317777 0.254312 0.309543 0.247928 0 0.0998475 0 0.0998641 0.0998475 0.199695 0.0998641 0.190462 0 0.0998641 0 0.0973877 0.0998641 0.190462 0.0973877 0.186766 0.199695 0.26424 0.190462 0.265402 0.26424 0.328784 0.265402 0.317365 0.190462 0.265402 0.186766 0.25931 0.265402 0.317365 0.25931 0.310544 0 0.0973877 0 0.0955252 0.0973877 0.186766 0.0955252 0.183177 0 0.0955252 0 0.0943359 0.0955252 0.183177 0.0943359 0.180548 0.186766 0.25931 0.183177 0.254349 0.25931 0.310544 0.254349 0.304559 0.183177 0.254349 0.180548 0.251211 0.25434