# vtk DataFile Version 3.0
#This file was generated by the deal.II library on 2018/12/4 at 0:47:15
ASCII
DATASET UNSTRUCTURED_GRID

POINTS 2908 double
0.3125 0 0
0.375 0 0
0.3125 0.0625 0
0.375 0.0625 0
0.3125 0.0625 0
0.375 0.0625 0
0.3125 0.125 0
0.375 0.125 0
0.4375 0.3125 0
0.5 0.3125 0
0.4375 0.375 0
0.5 0.375 0
0.1875 0.0625 0
0.25 0.0625 0
0.1875 0.125 0
0.25 0.125 0
0.625 0 0
0.6875 0 0
0.625 0.0625 0
0.6875 0.0625 0
0.625 0.0625 0
0.6875 0.0625 0
0.625 0.125 0
0.6875 0.125 0
0.5 0.3125 0
0.5625 0.3125 0
0.5 0.375 0
0.5625 0.375 0
0.1875 0.125 0
0.25 0.125 0
0.1875 0.1875 0
0.25 0.1875 0
0.1875 0.1875 0
0.25 0.1875 0
0.1875 0.25 0
0.25 0.25 0
0.375 0 0
0.4375 0 0
0.375 0.0625 0
0.4375 0.0625 0
0.375 0.0625 0
0.4375 0.0625 0
0.375 0.125 0
0.4375 0.125 0
0.4375 0.0625 0
0.5 0.0625 0
0.4375 0.125 0
0.5 0.125 0
0 0.3125 0
0.0625 0.3125 0
0 0.375 0
0.0625 0.375 0
0.0625 0.3125 0
0.125 0.3125 0
0.0625 0.375 0
0.125 0.375 0
0.125 0.3125 0
0.1875 0.3125 0
0.125 0.375 0
0.1875 0.375 0
0.1875 0.3125 0
0.25 0.3125 0
0.1875 0.375 0
0.25 0.375 0
0.3125 0.125 0
0.375 0.125 0
0.3125 0.1875 0
0.375 0.1875 0
0.375 0.125 0
0.4375 0.125 0
0.375 0.1875 0
0.4375 0.1875 0
0.4375 0.125 0
0.5 0.125 0
0.4375 0.1875 0
0.5 0.1875 0
0.4375 0.1875 0
0.5 0.1875 0
0.4375 0.25 0
0.5 0.25 0
0.75 0.3125 0
0.8125 0.3125 0
0.75 0.375 0
0.8125 0.375 0
0.8125 0.3125 0
0.875 0.3125 0
0.8125 0.375 0
0.875 0.375 0
0.875 0.3125 0
0.9375 0.3125 0
0.875 0.375 0
0.9375 0.375 0
0.9375 0.3125 0
1 0.3125 0
0.9375 0.375 0
1 0.375 0
0.3125 0.25 0
0.375 0.25 0
0.3125 0.3125 0
0.375 0.3125 0
0.3125 0.3125 0
0.375 0.3125 0
0.3125 0.375 0
0.375 0.375 0
0.5625 0 0
0.625 0 0
0.5625 0.0625 0
0.625 0.0625 0
0.5 0.0625 0
0.5625 0.0625 0
0.5 0.125 0
0.5625 0.125 0
0.5625 0.0625 0
0.625 0.0625 0
0.5625 0.125 0
0.625 0.125 0
0.5 0.125 0
0.5625 0.125 0
0.5 0.1875 0
0.5625 0.1875 0
0.5625 0.125 0
0.625 0.125 0
0.5625 0.1875 0
0.625 0.1875 0
0.5 0.1875 0
0.5625 0.1875 0
0.5 0.25 0
0.5625 0.25 0
0.5625 0.1875 0
0.625 0.1875 0
0.5625 0.25 0
0.625 0.25 0
0.625 0.125 0
0.6875 0.125 0
0.625 0.1875 0
0.6875 0.1875 0
0.625 0.1875 0
0.6875 0.1875 0
0.625 0.25 0
0.6875 0.25 0
0.75 0.0625 0
0.8125 0.0625 0
0.75 0.125 0
0.8125 0.125 0
0.75 0.125 0
0.8125 0.125 0
0.75 0.1875 0
0.8125 0.1875 0
0.75 0.1875 0
0.8125 0.1875 0
0.75 0.25 0
0.8125 0.25 0
0.625 0.25 0
0.6875 0.25 0
0.625 0.3125 0
0.6875 0.3125 0
0.625 0.3125 0
0.6875 0.3125 0
0.625 0.375 0
0.6875 0.375 0
0 0.625 0
0.0625 0.625 0
0 0.6875 0
0.0625 0.6875 0
0.0625 0.625 0
0.125 0.625 0
0.0625 0.6875 0
0.125 0.6875 0
0 0.6875 0
0.0625 0.6875 0
0 0.75 0
0.0625 0.75 0
0.0625 0.6875 0
0.125 0.6875 0
0.0625 0.75 0
0.125 0.75 0
0.875 0.625 0
0.9375 0.625 0
0.875 0.6875 0
0.9375 0.6875 0
0.9375 0.625 0
1 0.625 0
0.9375 0.6875 0
1 0.6875 0
0.875 0.6875 0
0.9375 0.6875 0
0.875 0.75 0
0.9375 0.75 0
0.9375 0.6875 0
1 0.6875 0
0.9375 0.75 0
1 0.75 0
0.3125 0.375 0
0.375 0.375 0
0.3125 0.4375 0
0.375 0.4375 0
0.3125 0.4375 0
0.375 0.4375 0
0.3125 0.5 0
0.375 0.5 0
0.25 0.5 0
0.3125 0.5 0
0.25 0.5625 0
0.3125 0.5625 0
0.3125 0.5 0
0.375 0.5 0
0.3125 0.5625 0
0.375 0.5625 0
0.3125 0.5625 0
0.375 0.5625 0
0.3125 0.625 0
0.375 0.625 0
0.4375 0.5 0
0.5 0.5 0
0.4375 0.5625 0
0.5 0.5625 0
0.4375 0.6875 0
0.5 0.6875 0
0.4375 0.75 0
0.5 0.75 0
0 0.75 0
0.0625 0.75 0
0 0.8125 0
0.0625 0.8125 0
0 0.8125 0
0.0625 0.8125 0
0 0.875 0
0.0625 0.875 0
0.625 0.375 0
0.6875 0.375 0
0.625 0.4375 0
0.6875 0.4375 0
0.625 0.4375 0
0.6875 0.4375 0
0.625 0.5 0
0.6875 0.5 0
0 0.4375 0
0.0625 0.4375 0
0 0.5 0
0.0625 0.5 0
0.5 0.5 0
0.5625 0.5 0
0.5 0.5625 0
0.5625 0.5625 0
0.625 0.5 0
0.6875 0.5 0
0.625 0.5625 0
0.6875 0.5625 0
0.6875 0.5 0
0.75 0.5 0
0.6875 0.5625 0
0.75 0.5625 0
0.625 0.5625 0
0.6875 0.5625 0
0.625 0.625 0
0.6875 0.625 0
0.5 0.6875 0
0.5625 0.6875 0
0.5 0.75 0
0.5625 0.75 0
0.9375 0.75 0
1 0.75 0
0.9375 0.8125 0
1 0.8125 0
0.9375 0.8125 0
1 0.8125 0
0.9375 0.875 0
1 0.875 0
0.9375 0.4375 0
1 0.4375 0
0.9375 0.5 0
1 0.5 0
0 0.5 0
0.0625 0.5 0
0 0.5625 0
0.0625 0.5625 0
0 0.5625 0
0.0625 0.5625 0
0 0.625 0
0.0625 0.625 0
0.3125 0.75 0
0.375 0.75 0
0.3125 0.8125 0
0.375 0.8125 0
0.3125 0.8125 0
0.375 0.8125 0
0.3125 0.875 0
0.375 0.875 0
0.3125 0.875 0
0.375 0.875 0
0.3125 0.9375 0
0.375 0.9375 0
0.3125 0.9375 0
0.375 0.9375 0
0.3125 1 0
0.375 1 0
0.9375 0.5 0
1 0.5 0
0.9375 0.5625 0
1 0.5625 0
0.9375 0.5625 0
1 0.5625 0
0.9375 0.625 0
1 0.625 0
0.625 0.75 0
0.6875 0.75 0
0.625 0.8125 0
0.6875 0.8125 0
0.625 0.8125 0
0.6875 0.8125 0
0.625 0.875 0
0.6875 0.875 0
0.5625 0.9375 0
0.625 0.9375 0
0.5625 1 0
0.625 1 0
0.625 0.875 0
0.6875 0.875 0
0.625 0.9375 0
0.6875 0.9375 0
0.6875 0.875 0
0.75 0.875 0
0.6875 0.9375 0
0.75 0.9375 0
0.625 0.9375 0
0.6875 0.9375 0
0.625 1 0
0.6875 1 0
0.6875 0.9375 0
0.75 0.9375 0
0.6875 1 0
0.75 1 0
0.25 0.625 0
0.3125 0.625 0
0.25 0.6875 0
0.3125 0.6875 0
0.3125 0.625 0
0.375 0.625 0
0.3125 0.6875 0
0.375 0.6875 0
0.25 0.6875 0
0.3125 0.6875 0
0.25 0.75 0
0.3125 0.75 0
0.3125 0.6875 0
0.375 0.6875 0
0.3125 0.75 0
0.375 0.75 0
0.125 0.75 0
0.1875 0.75 0
0.125 0.8125 0
0.1875 0.8125 0
0.1875 0.75 0
0.25 0.75 0
0.1875 0.8125 0
0.25 0.8125 0
0.125 0.8125 0
0.1875 0.8125 0
0.125 0.875 0
0.1875 0.875 0
0.1875 0.8125 0
0.25 0.8125 0
0.1875 0.875 0
0.25 0.875 0
0 0.875 0
0.0625 0.875 0
0 0.9375 0
0.0625 0.9375 0
0.0625 0.875 0
0.125 0.875 0
0.0625 0.9375 0
0.125 0.9375 0
0 0.9375 0
0.0625 0.9375 0
0 1 0
0.0625 1 0
0.0625 0.9375 0
0.125 0.9375 0
0.0625 1 0
0.125 1 0
0.125 0.875 0
0.1875 0.875 0
0.125 0.9375 0
0.1875 0.9375 0
0.1875 0.875 0
0.25 0.875 0
0.1875 0.9375 0
0.25 0.9375 0
0.125 0.9375 0
0.1875 0.9375 0
0.125 1 0
0.1875 1 0
0.1875 0.9375 0
0.25 0.9375 0
0.1875 1 0
0.25 1 0
0.625 0.625 0
0.6875 0.625 0
0.625 0.6875 0
0.6875 0.6875 0
0.6875 0.625 0
0.75 0.625 0
0.6875 0.6875 0
0.75 0.6875 0
0.625 0.6875 0
0.6875 0.6875 0
0.625 0.75 0
0.6875 0.75 0
0.6875 0.6875 0
0.75 0.6875 0
0.6875 0.75 0
0.75 0.75 0
0.75 0.75 0
0.8125 0.75 0
0.75 0.8125 0
0.8125 0.8125 0
0.8125 0.75 0
0.875 0.75 0
0.8125 0.8125 0
0.875 0.8125 0
0.75 0.8125 0
0.8125 0.8125 0
0.75 0.875 0
0.8125 0.875 0
0.8125 0.8125 0
0.875 0.8125 0
0.8125 0.875 0
0.875 0.875 0
0.75 0.875 0
0.8125 0.875 0
0.75 0.9375 0
0.8125 0.9375 0
0.8125 0.875 0
0.875 0.875 0
0.8125 0.9375 0
0.875 0.9375 0
0.75 0.9375 0
0.8125 0.9375 0
0.75 1 0
0.8125 1 0
0.8125 0.9375 0
0.875 0.9375 0
0.8125 1 0
0.875 1 0
0.875 0.875 0
0.9375 0.875 0
0.875 0.9375 0
0.9375 0.9375 0
0.9375 0.875 0
1 0.875 0
0.9375 0.9375 0
1 0.9375 0
0.875 0.9375 0
0.9375 0.9375 0
0.875 1 0
0.9375 1 0
0.9375 0.9375 0
1 0.9375 0
0.9375 1 0
1 1 0
0 0.125 0
0.03125 0.125 0
0 0.15625 0
0.03125 0.15625 0
0.03125 0.125 0
0.0625 0.125 0
0.03125 0.15625 0
0.0625 0.15625 0
0 0.15625 0
0.03125 0.15625 0
0 0.1875 0
0.03125 0.1875 0
0.03125 0.15625 0
0.0625 0.15625 0
0.03125 0.1875 0
0.0625 0.1875 0
0.0625 0 0
0.09375 0 0
0.0625 0.03125 0
0.09375 0.03125 0
0.09375 0 0
0.125 0 0
0.09375 0.03125 0
0.125 0.03125 0
0.0625 0.03125 0
0.09375 0.03125 0
0.0625 0.0625 0
0.09375 0.0625 0
0.09375 0.03125 0
0.125 0.03125 0
0.09375 0.0625 0
0.125 0.0625 0
0.0625 0.0625 0
0.09375 0.0625 0
0.0625 0.09375 0
0.09375 0.09375 0
0.09375 0.0625 0
0.125 0.0625 0
0.09375 0.09375 0
0.125 0.09375 0
0.0625 0.09375 0
0.09375 0.09375 0
0.0625 0.125 0
0.09375 0.125 0
0.09375 0.09375 0
0.125 0.09375 0
0.09375 0.125 0
0.125 0.125 0
0.125 0.03125 0
0.15625 0.03125 0
0.125 0.0625 0
0.15625 0.0625 0
0.1875 0 0
0.21875 0 0
0.1875 0.03125 0
0.21875 0.03125 0
0.21875 0 0
0.25 0 0
0.21875 0.03125 0
0.25 0.03125 0
0.1875 0.03125 0
0.21875 0.03125 0
0.1875 0.0625 0
0.21875 0.0625 0
0.21875 0.03125 0
0.25 0.03125 0
0.21875 0.0625 0
0.25 0.0625 0
0.125 0.0625 0
0.15625 0.0625 0
0.125 0.09375 0
0.15625 0.09375 0
0.15625 0.0625 0
0.1875 0.0625 0
0.15625 0.09375 0
0.1875 0.09375 0
0.15625 0.09375 0
0.1875 0.09375 0
0.15625 0.125 0
0.1875 0.125 0
0.0625 0.125 0
0.09375 0.125 0
0.0625 0.15625 0
0.09375 0.15625 0
0.09375 0.125 0
0.125 0.125 0
0.09375 0.15625 0
0.125 0.15625 0
0.0625 0.15625 0
0.09375 0.15625 0
0.0625 0.1875 0
0.09375 0.1875 0
0.09375 0.15625 0
0.125 0.15625 0
0.09375 0.1875 0
0.125 0.1875 0
0 0.1875 0
0.03125 0.1875 0
0 0.21875 0
0.03125 0.21875 0
0.03125 0.1875 0
0.0625 0.1875 0
0.03125 0.21875 0
0.0625 0.21875 0
0 0.21875 0
0.03125 0.21875 0
0 0.25 0
0.03125 0.25 0
0.03125 0.21875 0
0.0625 0.21875 0
0.03125 0.25 0
0.0625 0.25 0
0.15625 0.125 0
0.1875 0.125 0
0.15625 0.15625 0
0.1875 0.15625 0
0.15625 0.15625 0
0.1875 0.15625 0
0.15625 0.1875 0
0.1875 0.1875 0
0.0625 0.1875 0
0.09375 0.1875 0
0.0625 0.21875 0
0.09375 0.21875 0
0.09375 0.1875 0
0.125 0.1875 0
0.09375 0.21875 0
0.125 0.21875 0
0.0625 0.21875 0
0.09375 0.21875 0
0.0625 0.25 0
0.09375 0.25 0
0.09375 0.21875 0
0.125 0.21875 0
0.09375 0.25 0
0.125 0.25 0
0.15625 0.1875 0
0.1875 0.1875 0
0.15625 0.21875 0
0.1875 0.21875 0
0.125 0.21875 0
0.15625 0.21875 0
0.125 0.25 0
0.15625 0.25 0
0.15625 0.21875 0
0.1875 0.21875 0
0.15625 0.25 0
0.1875 0.25 0
0.25 0 0
0.28125 0 0
0.25 0.03125 0
0.28125 0.03125 0
0.28125 0 0
0.3125 0 0
0.28125 0.03125 0
0.3125 0.03125 0
0.25 0.03125 0
0.28125 0.03125 0
0.25 0.0625 0
0.28125 0.0625 0
0.28125 0.03125 0
0.3125 0.03125 0
0.28125 0.0625 0
0.3125 0.0625 0
0.25 0.0625 0
0.28125 0.0625 0
0.25 0.09375 0
0.28125 0.09375 0
0.28125 0.0625 0
0.3125 0.0625 0
0.28125 0.09375 0
0.3125 0.09375 0
0.25 0.09375 0
0.28125 0.09375 0
0.25 0.125 0
0.28125 0.125 0
0.28125 0.09375 0
0.3125 0.09375 0
0.28125 0.125 0
0.3125 0.125 0
0.4375 0 0
0.46875 0 0
0.4375 0.03125 0
0.46875 0.03125 0
0.4375 0.03125 0
0.46875 0.03125 0
0.4375 0.0625 0
0.46875 0.0625 0
0.46875 0.03125 0
0.5 0.03125 0
0.46875 0.0625 0
0.5 0.0625 0
0.375 0.25 0
0.40625 0.25 0
0.375 0.28125 0
0.40625 0.28125 0
0.40625 0.25 0
0.4375 0.25 0
0.40625 0.28125 0
0.4375 0.28125 0
0.375 0.28125 0
0.40625 0.28125 0
0.375 0.3125 0
0.40625 0.3125 0
0.40625 0.28125 0
0.4375 0.28125 0
0.40625 0.3125 0
0.4375 0.3125 0
0.4375 0.25 0
0.46875 0.25 0
0.4375 0.28125 0
0.46875 0.28125 0
0.46875 0.25 0
0.5 0.25 0
0.46875 0.28125 0
[...]
POINT_DATA 2908
SCALARS U double 1
LOOKUP_TABLE default
0.173723 -0.34077 0.159883 -0.323004 0.159883 -0.323004 0.146567 -0.305914 -0.545826 -0.656121 -0.514136 -0.617875 0.821378 0.591447 0.761856 0.547683 -0.34077 0.173723 -0.32288 0.159974 -0.32288 0.159974 -0.305574 0.146817 -0.656121 -0.545451 -0.617875 -0.513996 0.761856 0.547683 0.710023 0.50963 0.710023 0.50963 0.66396 0.476558 -0.34077 -0.740403 -0.323004 -0.70114 -0.323004 -0.70114 -0.305914 -0.657957 -0.70114 -0.848703 -0.657957 -0.789913 0 0.357244 0 0.333476 0.357244 0.593155 0.333476 0.554004 0.593155 0.62636 0.554004 0.585566 0.62636 0.44543 0.585566 0.415951 0.146567 -0.305914 0.134783 -0.290527 -0.305914 -0.657957 -0.290527 -0.618371 -0.657957 -0.789913 -0.618371 -0.741004 -0.618371 -0.741004 -0.578391 -0.697573 0.445352 0.626351 0.415943 0.585569 0.626351 0.593168 0.585569 0.554015 0.593168 0.357254 0.554015 0.333484 0.357254 2.39352e-16 0.333484 2.2485e-16 0.123861 -0.270529 0.11422 -0.256098 0.11422 -0.256098 0.104812 -0.242204 -0.740403 -0.34077 -0.701053 -0.32288 -0.848703 -0.701053 -0.789913 -0.657622 -0.701053 -0.32288 -0.657622 -0.305574 -0.789913 -0.657622 -0.741004 -0.617713 -0.657622 -0.305574 -0.617713 -0.288906 -0.741004 -0.617713 -0.697573 -0.582594 -0.617713 -0.288906 -0.582594 -0.27305 -0.305574 0.146817 -0.288906 0.13444 -0.288906 0.13444 -0.27305 0.123545 0.5915 0.821404 0.547718 0.761882 0.547718 0.761882 0.509526 0.710028 0.509526 0.710028 0.476403 0.663948 -0.27305 0.123545 -0.254995 0.113974 -0.254995 0.113974 -0.242082 0.104929 0 0.254026 0 0.238099 0.254026 0.421151 0.238099 0.392532 0 0.238099 0 0.224175 0.238099 0.392532 0.224175 0.372384 0.421174 0.254045 0.39256 0.238131 0.254045 1.75114e-16 0.238131 1.64504e-16 0.39256 0.238131 0.372441 0.224227 0.238131 1.64504e-16 0.224227 1.54537e-16 0.104812 -0.242204 0.0948514 -0.228191 0.0948514 -0.228191 0.0892924 -0.215968 0.359646 0.0892924 0.336111 0.0820862 0.0892924 -0.215968 0.0820862 -0.203344 0.0820862 -0.203344 0.0764052 -0.190461 -0.455082 -0.54646 -0.427537 -0.513115 -0.376254 -0.451773 -0.352667 -0.42366 0 0.224175 0 0.20788 0 0.20788 0 0.199458 -0.242082 0.104929 -0.228147 0.094876 -0.228147 0.094876 -0.215958 0.0893046 0 0.307317 0 0.287067 -0.54646 -0.455075 -0.513115 -0.427538 -0.215958 0.0893046 -0.203345 0.0820877 0.0893046 0.35966 0.0820877 0.336118 -0.203345 0.0820877 -0.190487 0.0763771 -0.451773 -0.376292 -0.42366 -0.35271 0.224227 1.54537e-16 0.20795 1.45174e-16 0.20795 1.45174e-16 0.199533 1.36379e-16 0.307324 2.11227e-16 0.287076 1.9843e-16 0 0.287067 0 0.267954 0 0.267954 0 0.254026 0.0697243 -0.166972 0.0658291 -0.155074 0.0658291 -0.155074 0.0645505 -0.144397 0.0645505 -0.144397 0.0638045 -0.134507 0.0638045 -0.134507 0.0639092 -0.125362 0.287076 1.9843e-16 0.267967 1.86407e-16 0.267967 1.86407e-16 0.254045 1.75114e-16 -0.167161 0.0694408 -0.155139 0.0650305 -0.155139 0.0650305 -0.143769 0.064989 -0.290136 -0.13542 -0.272379 -0.125362 -0.143769 0.064989 -0.13542 0.0637763 0.064989 0.250093 0.0637763 0.239397 -0.13542 0.0637763 -0.125362 0.0639092 0.0637763 0.239397 0.0639092 0.231639 0.314712 0.0764052 0.293812 0.0725802 0.0764052 -0.190461 0.0725802 -0.178716 0.293812 0.0725802 0.279913 0.0697243 0.0725802 -0.178716 0.0697243 -0.166972 0.372384 0.394611 0.34663 0.368817 0.394611 0.279913 0.368817 0.262457 0.34663 0.368817 0.330538 0.348613 0.368817 0.262457 0.348613 0.24949 0 0.199458 0 0.189461 0.199458 0.330538 0.189461 0.314658 0 0.189461 0 0.181998 0.189461 0.314658 0.181998 0.302651 0.330538 0.348613 0.314658 0.333324 0.348613 0.24949 0.333324 0.239278 0.314658 0.333324 0.302651 0.321293 0.333324 0.239278 0.321293 0.231639 -0.190487 0.0763771 -0.178799 0.0724719 0.0763771 0.314696 0.0724719 0.293732 -0.178799 0.0724719 -0.167161 0.0694408 0.0724719 0.293732 0.0694408 0.27968 0.27968 0.394528 0.261676 0.368843 0.394528 0.372441 0.368843 0.346723 0.261676 0.368843 0.250093 0.348705 0.368843 0.346723 0.348705 0.330663 0.250093 0.348705 0.239397 0.333474 0.348705 0.330663 0.333474 0.314747 0.239397 0.333474 0.231639 0.321293 0.333474 0.314747 0.321293 0.302651 0.330663 0.199533 0.314747 0.18951 0.199533 1.36379e-16 0.18951 1.28116e-16 0.314747 0.18951 0.302651 0.181998 0.18951 1.28116e-16 0.181998 1.20354e-16 0 0.225407 0 0.217725 0.225407 0.431449 0.217725 0.416719 0 0.217725 0 0.210307 0.217725 0.416719 0.210307 0.402508 0.494722 0.688347 0.47834 0.665788 0.688347 0.822692 0.665788 0.796637 0.47834 0.665788 0.462338 0.643686 0.665788 0.796637 0.643686 0.769808 0.462338 0.643686 0.446696 0.621755 0.643686 0.769808 0.621755 0.744265 0.446696 0.621755 0.431449 0.60044 0.621755 0.744265 0.60044 0.717108 0.796637 0.857581 0.769808 0.830359 0.873365 0.785329 0.840287 0.755805 0.785329 0.629661 0.755805 0.604956 0.840287 0.755805 0.821378 0.706413 0.755805 0.604956 0.706413 0.591447 0.769808 0.830359 0.744265 0.802451 0.830359 0.821378 0.802451 0.791617 0.802451 0.791617 0.772858 0.761856 0.431449 0.60044 0.416719 0.579724 0.60044 0.717108 0.579724 0.692912 0.416719 0.579724 0.402508 0.560068 0.579724 0.692912 0.560068 0.668771 0 0.210307 0 0.203131 0.210307 0.402508 0.203131 0.38877 0 0.203131 0 0.196115 0.203131 0.38877 0.196115 0.375464 0.772858 0.761856 0.746403 0.73594 0.746403 0.73594 0.720505 0.710023 0.402508 0.560068 0.38877 0.540961 0.560068 0.668771 0.540961 0.647185 0.38877 0.540961 0.375464 0.522237 0.540961 0.647185 0.522237 0.624274 0.720505 0.710023 0.697261 0.686992 0.647185 0.697261 0.624274 0.671821 0.697261 0.686992 0.671821 0.66396 0.629661 0.419767 0.604956 0.405074 0.419767 0.173723 0.405074 0.166803 0.604956 0.405074 0.591447 0.390999 0.405074 0.166803 0.390999 0.159883 0.591447 0.390999 0.569565 0.377364 0.390999 0.159883 0.377364 0.153225 0.569565 0.377364 0.547683 0.363317 0.377364 0.153225 0.363317 0.146567 -0.740403 -0.852132 -0.720771 -0.825526 -0.720771 -0.825526 -0.70114 -0.774921 -0.825526 -0.860197 -0.774921 -0.848703 -0.270529 -0.442015 -0.263314 -0.429297 -0.442015 -0.578391 -0.429297 -0.553616 -0.263314 -0.429297 -0.256098 -0.417174 -0.429297 -0.553616 -0.417174 -0.545826 -0.578391 -0.637982 -0.553616 -0.636515 -0.637982 -0.697573 -0.636515 -0.659571 -0.553616 -0.636515 -0.545826 -0.600974 -0.636515 -0.659571 -0.600974 -0.656121 -0.256098 -0.417174 -0.249151 -0.406081 -0.417174 -0.545826 -0.406081 -0.529981 -0.249151 -0.406081 -0.242204 -0.393364 -0.406081 -0.529981 -0.393364 -0.514136 0 0.258491 0 0.249887 0.258491 0.494722 0.249887 0.47834 0 0.249887 0 0.241508 0.249887 0.47834 0.241508 0.462338 0 0.241508 0 0.233342 0.241508 0.462338 0.233342 0.446696 0 0.233342 0 0.225407 0.233342 0.446696 0.225407 0.431449 0.173723 0.419767 0.166849 0.40511 0.419767 0.629661 0.40511 0.604984 0.166849 0.40511 0.159974 0.391071 0.40511 0.604984 0.391071 0.5915 0.159974 0.391071 0.153396 0.377464 0.391071 0.5915 0.377464 0.569609 0.153396 0.377464 0.146817 0.363381 0.377464 0.569609 0.363381 0.547718 0.717132 0.600459 0.692936 0.579744 0.600459 0.431462 0.579744 0.416733 0.692936 0.579744 0.668794 0.560088 0.579744 0.416733 0.560088 0.402522 0.431462 0.225413 0.416733 0.217732 0.225413 2.88714e-16 0.217732 2.79831e-16 0.416733 0.217732 0.402522 0.210314 0.217732 2.79831e-16 0.210314 2.71221e-16 0.668794 0.560088 0.647205 0.54098 0.560088 0.402522 0.54098 0.388784 0.647205 0.54098 0.624291 0.522254 0.54098 0.388784 0.522254 0.375476 0.402522 0.210314 0.388784 0.203138 0.210314 2.71221e-16 0.203138 2.62877e-16 0.388784 0.203138 0.375476 0.196122 0.203138 2.62877e-16 0.196122 2.54789e-16 -0.852132 -0.740403 -0.825506 -0.720728 -0.860197 -0.825506 -0.848703 -0.774878 -0.825506 -0.720728 -0.774878 -0.701053 -0.697573 -0.640084 -0.659571 -0.637096 -0.640084 -0.582594 -0.637096 -0.552433 -0.659571 -0.637096 -0.656121 -0.600786 -0.637096 -0.552433 -0.600786 -0.545451 -0.582594 -0.427822 -0.552433 -0.428075 -0.427822 -0.27305 -0.428075 -0.264023 -0.552433 -0.428075 -0.545451 -0.416639 -0.428075 -0.264023 -0.416639 -0.254995 -0.545451 -0.416639 -0.529723 -0.405678 -0.416639 -0.254995 -0.405678 -0.248539 -0.529723 -0.405678 -0.513996 -0.393155 -0.405678 -0.248539 -0.393155 -0.242082 0 0.196115 0 0.189714 0.196115 0.375464 0.189714 0.361594 0 0.189714 0 0.178622 0.189714 0.361594 0.178622 0.357244 0.375464 0.522237 0.361594 0.504953 0.522237 0.624274 0.504953 0.600673 0.361594 0.504953 0.357244 0.475199 0.504953 0.600673 0.475199 0.593155 0.624274 0.671821 0.600673 0.648741 0.671821 0.66396 0.648741 0.632591 0.600673 0.648741 0.593155 0.609757 0.648741 0.632591 0.609757 0.62636 0.66396 0.570259 0.632591 0.569001 0.570259 0.476558 0.569001 0.452764 0.632591 0.569001 0.62636 0.535895 0.569001 0.452764 0.535895 0.44543 0.629661 0.785329 0.604984 0.755826 0.785329 0.873365 0.755826 0.840303 0.604984 0.755826 0.5915 0.706452 0.755826 0.840303 0.706452 0.821404 0.857592 0.796645 0.830379 0.769823 0.547683 0.363317 0.528657 0.349825 0.363317 0.146567 0.349825 0.140675 0.528657 0.349825 0.50963 0.337376 0.349825 0.140675 0.337376 0.134783 0.821404 0.830379 0.791643 0.802476 0.830379 0.769823 0.802476 0.744286 0.791643 0.802476 0.761882 0.772885 0.822692 0.688347 0.796645 0.665794 0.688347 0.494722 0.665794 0.478344 0.796645 0.665794 0.769823 0.643698 0.665794 0.478344 0.643698 0.462346 0.769823 0.643698 0.744286 0.621771 0.643698 0.462346 0.621771 0.446707 0.744286 0.621771 0.717132 0.600459 0.621771 0.446707 0.600459 0.431462 0.50963 0.337376 0.493094 0.325316 0.337376 0.134783 0.325316 0.130047 0.493094 0.325316 0.476558 0.313001 0.325316 0.130047 0.313001 0.123861 0.761882 0.772885 0.735955 0.746427 0.735955 0.746427 0.710028 0.720525 0.134783 -0.0778723 0.130047 -0.0772482 -0.0778723 -0.290527 -0.0772482 -0.276319 0.130047 -0.0772482 0.123861 -0.0733341 -0.0772482 -0.276319 -0.0733341 -0.270529 0.710028 0.720525 0.686988 0.697275 0.686988 0.697275 0.663948 0.67183 0.697275 0.647205 0.67183 0.624291 -0.290527 -0.454449 -0.276319 -0.455418 -0.454449 -0.618371 -0.455418 -0.598381 -0.276319 -0.455418 -0.270529 -0.442015 -0.455418 -0.598381 -0.442015 -0.578391 0.476403 0.570175 0.452637 0.568942 0.570175 0.663948 0.568942 0.632573 0.452637 0.568942 0.445352 0.535852 0.568942 0.632573 0.535852 0.626351 0.663948 0.67183 0.632573 0.648747 0.67183 0.624291 0.648747 0.600687 0.632573 0.648747 0.626351 0.609759 0.648747 0.600687 0.609759 0.593168 0.624291 0.522254 0.600687 0.504968 0.522254 0.375476 0.504968 0.361605 0.600687 0.504968 0.593168 0.475211 0.504968 0.361605 0.475211 0.357254 0.375476 0.196122 0.361605 0.18972 0.196122 2.54789e-16 0.18972 2.4695e-16 0.361605 0.18972 0.357254 0.178627 0.18972 2.4695e-16 0.178627 2.39352e-16 0.476558 0.313001 0.452764 0.30189 0.313001 0.123861 0.30189 0.11904 0.452764 0.30189 0.44543 0.291478 0.30189 0.11904 0.291478 0.11422 0.44543 0.291478 0.43069 0.282122 0.291478 0.11422 0.282122 0.109516 0.43069 0.282122 0.415951 0.271255 0.282122 0.109516 0.271255 0.104812 0.146817 0.363381 0.140629 0.349779 0.363381 0.547718 0.349779 0.528622 0.140629 0.349779 0.13444 0.337126 0.349779 0.528622 0.337126 0.509526 0.13444 0.337126 0.128993 0.324992 0.337126 0.509526 0.324992 0.492964 0.128993 0.324992 0.123545 0.312687 0.324992 0.492964 0.312687 0.476403 0.494722 0.258491 0.478344 0.249889 0.258491 3.27155e-16 0.249889 3.1709e-16 0.478344 0.249889 0.462346 0.241512 0.249889 3.1709e-16 0.241512 3.07334e-16 0.462346 0.241512 0.446707 0.233348 0.241512 3.07334e-16 0.233348 2.97878e-16 0.446707 0.233348 0.431462 0.225413 0.233348 2.97878e-16 0.225413 2.88714e-16 0.123545 0.312687 0.118759 0.301689 0.312687 0.476403 0.301689 0.452637 0.118759 0.301689 0.113974 0.291344 0.301689 0.452637 0.291344 0.445352 0.113974 0.291344 0.109451 0.282066 0.291344 0.445352 0.282066 0.430648 0.109451 0.282066 0.104929 0.271261 0.282066 0.430648 0.271261 0.415943 0.415951 0.271255 0.395449 0.260478 0.271255 0.104812 0.260478 0.0998319 0.395449 0.260478 0.382588 0.250222 0.260478 0.0998319 0.250222 0.0948514 0.382588 0.250222 0.369049 0.240833 0.250222 0.0948514 0.240833 0.0920719 0.369049 0.240833 0.359646 0.224469 0.240833 0.0920719 0.224469 0.0892924 0.336111 0.209099 0.321924 0.208956 0.209099 0.0820862 0.208956 0.0792457 0.321924 0.208956 0.314712 0.195559 0.208956 0.0792457 0.195559 0.0764052 -0.215968 -0.348774 -0.209656 -0.339071 -0.348774 -0.455082 -0.339071 -0.44131 -0.209656 -0.339071 -0.203344 -0.327949 -0.339071 -0.44131 -0.327949 -0.427537 -0.203344 -0.327949 -0.196903 -0.316888 -0.327949 -0.427537 -0.316888 -0.408551 -0.196903 -0.316888 -0.190461 -0.306186 -0.316888 -0.408551 -0.306186 -0.396396 -0.427537 -0.470326 -0.408551 -0.46819 -0.470326 -0.513115 -0.46819 -0.486461 -0.408551 -0.46819 -0.396396 -0.453116 -0.46819 -0.486461 -0.453116 -0.472835 -0.242204 -0.393364 -0.235197 -0.380749 -0.393364 -0.514136 -0.380749 -0.491933 -0.235197 -0.380749 -0.228191 -0.36861 -0.380749 -0.491933 -0.36861 -0.478 -0.514136 -0.566006 -0.491933 -0.564251 -0.566006 -0.617875 -0.564251 -0.58639 -0.491933 -0.564251 -0.478 -0.54676 -0.564251 -0.58639 -0.54676 -0.570653 -0.228191 -0.36861 -0.222079 -0.358503 -0.36861 -0.478 -0.358503 -0.462876 -0.222079 -0.358503 -0.215968 -0.348774 -0.358503 -0.462876 -0.348774 -0.455082 -0.478 -0.54676 -0.462876 -0.530688 -0.54676 -0.570653 -0.530688 -0.551604 -0.462876 -0.530688 -0.455082 -0.500771 -0.530688 -0.551604 -0.500771 -0.54646 -0.190461 -0.306186 -0.184588 -0.297145 -0.306186 -0.396396 -0.297145 -0.383276 -0.184588 -0.297145 -0.178716 -0.288446 -0.297145 -0.383276 -0.288446 -0.376254 -0.396396 -0.453116 -0.383276 -0.439252 -0.453116 -0.472835 -0.439252 -0.456525 -0.383276 -0.439252 -0.376254 -0.414014 -0.439252 -0.456525 -0.414014 -0.451773 -0.178716 -0.288446 -0.172844 -0.279832 -0.288446 -0.376254 -0.279832 -0.36446 -0.172844 -0.279832 -0.166972 -0.270141 -0.279832 -0.36446 -0.270141 -0.352667 0.224175 0.298279 0.216027 0.299141 0.298279 0.372384 0.299141 0.359507 0.216027 0.299141 0.20788 0.290984 0.299141 0.359507 0.290984 0.34663 0.20788 0.290984 0.203669 0.281838 0.290984 0.34663 0.281838 0.338584 0.203669 0.281838 0.199458 0.264998 0.281838 0.338584 0.264998 0.330538 -0.617875 -0.565936 -0.58639 -0.564212 -0.565936 -0.513996 -0.564212 -0.491859 -0.58639 -0.564212 -0.570653 -0.546741 -0.564212 -0.491859 -0.546741 -0.477966 -0.513996 -0.393155 -0.491859 -0.380664 -0.393155 -0.242082 -0.380664 -0.235115 -0.491859 -0.380664 -0.477966 -0.368567 -0.380664 -0.235115 -0.368567 -0.228147 -0.570653 -0.546741 -0.551604 -0.530679 -0.546741 -0.477966 -0.530679 -0.46286 -0.551604 -0.530679 -0.54646 -0.500768 -0.530679 -0.46286 -0.500768 -0.455075 -0.477966 -0.368567 -0.46286 -0.358483 -0.368567 -0.228147 -0.358483 -0.222052 -0.46286 -0.358483 -0.455075 -0.348764 -0.358483 -0.222052 -0.348764 -0.215958 0.104929 0.271261 0.0999026 0.260508 0.271261 0.415943 0.260508 0.395459 0.0999026 0.260508 0.094876 0.250246 0.260508 0.395459 0.250246 0.382603 0.094876 0.250246 0.0920903 0.240849 0.250246 0.382603 0.240849 0.369064 0.0920903 0.240849 0.0893046 0.224482 0.240849 0.369064 0.224482 0.35966 0 0.166738 0 0.164842 0.166738 0.333476 0.164842 0.314783 0 0.164842 0 0.153658 0.164842 0.314783 0.153658 0.307317 0.333476 0.44374 0.314783 0.440705 0.44374 0.554004 0.440705 0.523903 0.314783 0.440705 0.307317 0.425948 0.440705 0.523903 0.425948 0.508602 0.307317 0.425948 0.297192 0.412598 0.425948 0.508602 0.412598 0.492325 0.297192 0.412598 0.287067 0.399206 0.412598 0.492325 0.399206 0.476536 -0.455075 -0.348764 -0.441307 -0.339068 -0.348764 -0.215958 -0.339068 -0.209652 -0.441307 -0.339068 -0.427538 -0.327951 -0.339068 -0.209652 -0.327951 -0.203345 -0.513115 -0.470327 -0.486461 -0.468193 -0.470327 -0.427538 -0.468193 -0.408557 -0.486461 -0.468193 -0.472835 -0.453123 -0.468193 -0.408557 -0.453123 -0.39641 -0.427538 -0.327951 -0.408557 -0.316897 -0.327951 -0.203345 -0.316897 -0.196916 -0.408557 -0.316897 -0.39641 -0.306208 -0.316897 -0.196916 -0.306208 -0.190487 0.0820877 0.209103 0.0792324 0.20895 0.209103 0.336118 0.20895 0.321923 0.0792324 0.20895 0.0763771 0.195536 0.20895 0.321923 0.195536 0.314696 -0.472835 -0.453123 -0.456525 -0.439264 -0.453123 -0.39641 -0.439264 -0.383301 -0.456525 -0.439264 -0.451773 -0.414033 -0.439264 -0.383301 -0.414033 -0.376292 -0.39641 -0.306208 -0.383301 -0.297183 -0.306208 -0.190487 -0.297183 -0.184643 -0.383301 -0.297183 -0.376292 -0.288507 -0.297183 -0.184643 -0.288507 -0.178799 -0.376292 -0.288507 -0.364501 -0.279917 -0.288507 -0.178799 -0.279917 -0.17298 -0.364501 -0.279917 -0.35271 -0.270231 -0.279917 -0.17298 -0.270231 -0.167161 0.554004 0.569785 0.523903 0.565756 0.569785 0.585566 0.565756 0.553608 0.523903 0.565756 0.508602 0.546618 0.565756 0.553608 0.546618 0.537438 0.585566 0.500759 0.553608 0.497734 0.500759 0.415951 0.497734 0.395449 0.553608 0.497734 0.537438 0.480899 0.497734 0.395449 0.480899 0.382588 0.508602 0.546618 0.492325 0.529364 0.546618 0.537438 0.529364 0.520257 0.492325 0.529364 0.476536 0.512413 0.529364 0.520257 0.512413 0.503671 0.537438 0.480899 0.520257 0.465719 0.480899 0.382588 0.465719 0.369049 0.520257 0.465719 0.503671 0.450959 0.465719 0.369049 0.450959 0.359646 0.415943 0.500756 0.395459 0.49774 0.500756 0.585569 0.49774 0.553616 0.395459 0.49774 0.382603 0.480911 0.49774 0.553616 0.480911 0.537449 0.585569 0.569792 0.553616 0.565766 0.569792 0.554015 0.565766 0.523914 0.553616 0.565766 0.537449 0.54663 0.565766 0.523914 0.54663 0.508614 0.382603 0.480911 0.369064 0.465733 0.480911 0.537449 0.465733 0.52027 0.369064 0.465733 0.35966 0.450973 0.465733 0.52027 0.450973 0.503685 0.537449 0.54663 0.52027 0.529378 0.54663 0.508614 0.529378 0.492338 0.52027 0.529378 0.503685 0.512428 0.529378 0.492338 0.512428 0.47655 0.372441 0.298334 0.359582 0.299218 0.298334 0.224227 0.299218 0.216089 0.359582 0.299218 0.346723 0.291075 0.299218 0.216089 0.291075 0.20795 0.346723 0.291075 0.338693 0.281939 0.291075 0.20795 0.281939 0.203742 0.338693 0.281939 0.330663 0.265098 0.281939 0.203742 0.265098 0.199533 0.554015 0.44375 0.523914 0.440715 0.44375 0.333484 0.440715 0.314791 0.523914 0.440715 0.508614 0.425958 0.440715 0.314791 0.425958 0.307324 0.333484 0.166742 0.314791 0.164846 0.166742 2.2485e-16 0.164846 2.17932e-16 0.314791 0.164846 0.307324 0.153662 0.164846 2.17932e-16 0.153662 2.11227e-16 0.508614 0.425958 0.492338 0.412609 0.425958 0.307324 0.412609 0.2972 0.492338 0.412609 0.47655 0.399218 0.412609 0.2972 0.399218 0.287076 0.287067 0.399206 0.277511 0.386115 0.399206 0.476536 0.386115 0.461123 0.277511 0.386115 0.267954 0.373514 0.386115 0.461123 0.373514 0.446075 0.267954 0.373514 0.26099 0.360738 0.373514 0.446075 0.360738 0.430787 0.26099 0.360738 0.254026 0.337588 0.360738 0.430787 0.337588 0.421151 0.476536 0.512413 0.461123 0.495925 0.512413 0.503671 0.495925 0.487481 0.461123 0.495925 0.446075 0.479897 0.495925 0.487481 0.479897 0.471814 0.503671 0.450959 0.487481 0.436652 0.450959 0.359646 0.436652 0.347879 0.487481 0.436652 0.471814 0.422111 0.436652 0.347879 0.422111 0.336111 0.446075 0.479897 0.430787 0.464937 0.479897 0.471814 0.464937 0.456703 0.430787 0.464937 0.421151 0.450449 0.464937 0.456703 0.450449 0.442215 0.471814 0.422111 0.456703 0.408411 0.422111 0.336111 0.408411 0.321924 0.456703 0.408411 0.442215 0.395275 0.408411 0.321924 0.395275 0.314712 0.421151 0.450449 0.406841 0.436287 0.450449 0.442215 0.436287 0.428097 0.406841 0.436287 0.392532 0.422091 0.436287 0.428097 0.422091 0.414133 0.442215 0.395275 0.428097 0.38284 0.395275 0.314712 0.38284 0.304262 0.428097 0.38284 0.414133 0.370515 0.38284 0.304262 0.370515 0.293812 0.392532 0.422091 0.382458 0.408267 0.422091 0.414133 0.408267 0.399071 0.382458 0.408267 0.372384 0.383497 0.408267 0.399071 0.383497 0.394611 0.414133 0.370515 0.399071 0.358659 0.370515 0.293812 0.358659 0.286863 0.399071 0.358659 0.394611 0.337262 0.358659 0.286863 0.337262 0.279913 0.279913 0.174819 0.271185 0.176343 0.174819 0.0697243 0.176343 0.0677767 0.271185 0.176343 0.262457 0.172262 0.176343 0.0677767 0.172262 0.0658291 0.262457 0.172262 0.255974 0.168019 0.172262 0.0658291 0.168019 0.0651898 0.255974 0.