# vtk DataFile Version 3.0
#This file was generated by the deal.II library on 2018/12/4 at 0:47:16
ASCII
DATASET UNSTRUCTURED_GRID

POINTS 22816 double
0.3125 0.5625 0
0.375 0.5625 0
0.3125 0.625 0
0.375 0.625 0
0.625 0.5625 0
0.6875 0.5625 0
0.625 0.625 0
0.6875 0.625 0
0.3125 0.8125 0
0.375 0.8125 0
0.3125 0.875 0
0.375 0.875 0
0.3125 0.875 0
0.375 0.875 0
0.3125 0.9375 0
0.375 0.9375 0
0.625 0.8125 0
0.6875 0.8125 0
0.625 0.875 0
0.6875 0.875 0
0.625 0.875 0
0.6875 0.875 0
0.625 0.9375 0
0.6875 0.9375 0
0.3125 0 0
0.34375 0 0
0.3125 0.03125 0
0.34375 0.03125 0
0.34375 0 0
0.375 0 0
0.34375 0.03125 0
0.375 0.03125 0
0.3125 0.03125 0
0.34375 0.03125 0
0.3125 0.0625 0
0.34375 0.0625 0
0.28125 0.0625 0
0.3125 0.0625 0
0.28125 0.09375 0
0.3125 0.09375 0
0.28125 0.09375 0
0.3125 0.09375 0
0.28125 0.125 0
0.3125 0.125 0
0.375 0.34375 0
0.40625 0.34375 0
0.375 0.375 0
0.40625 0.375 0
0 0.0625 0
0.03125 0.0625 0
0 0.09375 0
0.03125 0.09375 0
0 0.09375 0
0.03125 0.09375 0
0 0.125 0
0.03125 0.125 0
0.6875 0.0625 0
0.71875 0.0625 0
0.6875 0.09375 0
0.71875 0.09375 0
0.6875 0.09375 0
0.71875 0.09375 0
0.6875 0.125 0
0.71875 0.125 0
0.3125 0.0625 0
0.34375 0.0625 0
0.3125 0.09375 0
0.34375 0.09375 0
0.3125 0.09375 0
0.34375 0.09375 0
0.3125 0.125 0
0.34375 0.125 0
0.59375 0.3125 0
0.625 0.3125 0
0.59375 0.34375 0
0.625 0.34375 0
0.59375 0.34375 0
0.625 0.34375 0
0.59375 0.375 0
0.625 0.375 0
0.25 0.125 0
0.28125 0.125 0
0.25 0.15625 0
0.28125 0.15625 0
0.28125 0.125 0
0.3125 0.125 0
0.28125 0.15625 0
0.3125 0.15625 0
0.28125 0.15625 0
0.3125 0.15625 0
0.28125 0.1875 0
0.3125 0.1875 0
0.28125 0.1875 0
0.3125 0.1875 0
0.28125 0.21875 0
0.3125 0.21875 0
0.28125 0.21875 0
0.3125 0.21875 0
0.28125 0.25 0
0.3125 0.25 0
0.625 0 0
0.65625 0 0
0.625 0.03125 0
0.65625 0.03125 0
0.65625 0 0
0.6875 0 0
0.65625 0.03125 0
0.6875 0.03125 0
0.65625 0.03125 0
0.6875 0.03125 0
0.65625 0.0625 0
0.6875 0.0625 0
0.28125 0.25 0
0.3125 0.25 0
0.28125 0.28125 0
0.3125 0.28125 0
0.28125 0.28125 0
0.3125 0.28125 0
0.28125 0.3125 0
0.3125 0.3125 0
0.28125 0.3125 0
0.3125 0.3125 0
0.28125 0.34375 0
0.3125 0.34375 0
0.28125 0.34375 0
0.3125 0.34375 0
0.28125 0.375 0
0.3125 0.375 0
0.6875 0.125 0
0.71875 0.125 0
0.6875 0.15625 0
0.71875 0.15625 0
0.71875 0.125 0
0.75 0.125 0
0.71875 0.15625 0
0.75 0.15625 0
0.6875 0.15625 0
0.71875 0.15625 0
0.6875 0.1875 0
0.71875 0.1875 0
0.6875 0.1875 0
0.71875 0.1875 0
0.6875 0.21875 0
0.71875 0.21875 0
0.6875 0.21875 0
0.71875 0.21875 0
0.6875 0.25 0
0.71875 0.25 0
0.96875 0.0625 0
1 0.0625 0
0.96875 0.09375 0
1 0.09375 0
0.96875 0.09375 0
1 0.09375 0
0.96875 0.125 0
1 0.125 0
0.6875 0.25 0
0.71875 0.25 0
0.6875 0.28125 0
0.71875 0.28125 0
0.6875 0.28125 0
0.71875 0.28125 0
0.6875 0.3125 0
0.71875 0.3125 0
0.6875 0.3125 0
0.71875 0.3125 0
0.6875 0.34375 0
0.71875 0.34375 0
0.6875 0.34375 0
0.71875 0.34375 0
0.6875 0.375 0
0.71875 0.375 0
0.28125 0.375 0
0.3125 0.375 0
0.28125 0.40625 0
0.3125 0.40625 0
0.28125 0.40625 0
0.3125 0.40625 0
0.28125 0.4375 0
0.3125 0.4375 0
0.65625 0.0625 0
0.6875 0.0625 0
0.65625 0.09375 0
0.6875 0.09375 0
0.65625 0.09375 0
0.6875 0.09375 0
0.65625 0.125 0
0.6875 0.125 0
0.375 0.5 0
0.40625 0.5 0
0.375 0.53125 0
0.40625 0.53125 0
0.375 0.53125 0
0.40625 0.53125 0
0.375 0.5625 0
0.40625 0.5625 0
0.375 0.5625 0
0.40625 0.5625 0
0.375 0.59375 0
0.40625 0.59375 0
0.375 0.59375 0
0.40625 0.59375 0
0.375 0.625 0
0.40625 0.625 0
0.375 0.375 0
0.40625 0.375 0
0.375 0.40625 0
0.40625 0.40625 0
0.59375 0.375 0
0.625 0.375 0
0.59375 0.40625 0
0.625 0.40625 0
0.6875 0.375 0
0.71875 0.375 0
0.6875 0.40625 0
0.71875 0.40625 0
0.6875 0.40625 0
0.71875 0.40625 0
0.6875 0.4375 0
0.71875 0.4375 0
0 0.3125 0
0.03125 0.3125 0
0 0.34375 0
0.03125 0.34375 0
0 0.34375 0
0.03125 0.34375 0
0 0.375 0
0.03125 0.375 0
0.03125 0.34375 0
0.0625 0.34375 0
0.03125 0.375 0
0.0625 0.375 0
0.59375 0.5 0
0.625 0.5 0
0.59375 0.53125 0
0.625 0.53125 0
0.59375 0.53125 0
0.625 0.53125 0
0.59375 0.5625 0
0.625 0.5625 0
0.59375 0.5625 0
0.625 0.5625 0
0.59375 0.59375 0
0.625 0.59375 0
0.59375 0.59375 0
0.625 0.59375 0
0.59375 0.625 0
0.625 0.625 0
0.3125 0.125 0
0.34375 0.125 0
0.3125 0.15625 0
0.34375 0.15625 0
0.3125 0.15625 0
0.34375 0.15625 0
0.3125 0.1875 0
0.34375 0.1875 0
0.96875 0.3125 0
1 0.3125 0
0.96875 0.34375 0
1 0.34375 0
0.9375 0.34375 0
0.96875 0.34375 0
0.9375 0.375 0
0.96875 0.375 0
0.96875 0.34375 0
1 0.34375 0
0.96875 0.375 0
1 0.375 0
0.65625 0.125 0
0.6875 0.125 0
0.65625 0.15625 0
0.6875 0.15625 0
0.65625 0.15625 0
0.6875 0.15625 0
0.65625 0.1875 0
0.6875 0.1875 0
0.65625 0.1875 0
0.6875 0.1875 0
0.65625 0.21875 0
0.6875 0.21875 0
0.65625 0.21875 0
0.6875 0.21875 0
0.65625 0.25 0
0.6875 0.25 0
0.65625 0.25 0
0.6875 0.25 0
0.65625 0.28125 0
0.6875 0.28125 0
0.625 0.28125 0
0.65625 0.28125 0
0.625 0.3125 0
0.65625 0.3125 0
0.65625 0.28125 0
0.6875 0.28125 0
0.65625 0.3125 0
0.6875 0.3125 0
0 0.625 0
0.03125 0.625 0
0 0.65625 0
0.03125 0.65625 0
0.03125 0.625 0
0.0625 0.625 0
0.03125 0.65625 0
0.0625 0.65625 0
0 0.65625 0
0.03125 0.65625 0
0 0.6875 0
0.03125 0.6875 0
0.03125 0.65625 0
0.0625 0.65625 0
0.03125 0.6875 0
0.0625 0.6875 0
0 0.1875 0
0.03125 0.1875 0
0 0.21875 0
0.03125 0.21875 0
0.03125 0.1875 0
0.0625 0.1875 0
0.03125 0.21875 0
0.0625 0.21875 0
0 0.21875 0
0.03125 0.21875 0
0 0.25 0
0.03125 0.25 0
0.03125 0.21875 0
0.0625 0.21875 0
0.03125 0.25 0
0.0625 0.25 0
0.0625 0.71875 0
0.09375 0.71875 0
0.0625 0.75 0
0.09375 0.75 0
0.96875 0.625 0
1 0.625 0
0.96875 0.65625 0
1 0.65625 0
0.9375 0.65625 0
0.96875 0.65625 0
0.9375 0.6875 0
0.96875 0.6875 0
0.96875 0.65625 0
1 0.65625 0
0.96875 0.6875 0
1 0.6875 0
0.90625 0.71875 0
0.9375 0.71875 0
0.90625 0.75 0
0.9375 0.75 0
0.9375 0.1875 0
0.96875 0.1875 0
0.9375 0.21875 0
0.96875 0.21875 0
0.96875 0.1875 0
1 0.1875 0
0.96875 0.21875 0
1 0.21875 0
0.9375 0.21875 0
0.96875 0.21875 0
0.9375 0.25 0
0.96875 0.25 0
0.96875 0.21875 0
1 0.21875 0
0.96875 0.25 0
1 0.25 0
0 0.4375 0
0.03125 0.4375 0
0 0.46875 0
0.03125 0.46875 0
0.03125 0.4375 0
0.0625 0.4375 0
0.03125 0.46875 0
0.0625 0.46875 0
0 0.46875 0
0.03125 0.46875 0
0 0.5 0
0.03125 0.5 0
0.9375 0.4375 0
0.96875 0.4375 0
0.9375 0.46875 0
0.96875 0.46875 0
0.96875 0.4375 0
1 0.4375 0
0.96875 0.46875 0
1 0.46875 0
0.96875 0.46875 0
1 0.46875 0
0.96875 0.5 0
1 0.5 0
0 0.5625 0
0.03125 0.5625 0
0 0.59375 0
0.03125 0.59375 0
0 0.59375 0
0.03125 0.59375 0
0 0.625 0
0.03125 0.625 0
0.96875 0.5625 0
1 0.5625 0
0.96875 0.59375 0
1 0.59375 0
0.96875 0.59375 0
1 0.59375 0
0.96875 0.625 0
1 0.625 0
0.6875 0.875 0
0.71875 0.875 0
0.6875 0.90625 0
0.71875 0.90625 0
0.71875 0.875 0
0.75 0.875 0
0.71875 0.90625 0
0.75 0.90625 0
0.6875 0.90625 0
0.71875 0.90625 0
0.6875 0.9375 0
0.71875 0.9375 0
0.71875 0.90625 0
0.75 0.90625 0
0.71875 0.9375 0
0.75 0.9375 0
0 0.25 0
0.03125 0.25 0
0 0.28125 0
0.03125 0.28125 0
0 0.28125 0
0.03125 0.28125 0
0 0.3125 0
0.03125 0.3125 0
0.3125 0.1875 0
0.34375 0.1875 0
0.3125 0.21875 0
0.34375 0.21875 0
0.3125 0.21875 0
0.34375 0.21875 0
0.3125 0.25 0
0.34375 0.25 0
0.0625 0.875 0
0.09375 0.875 0
0.0625 0.90625 0
0.09375 0.90625 0
0.0625 0.90625 0
0.09375 0.90625 0
0.0625 0.9375 0
0.09375 0.9375 0
0.96875 0.25 0
1 0.25 0
0.96875 0.28125 0
1 0.28125 0
0.96875 0.28125 0
1 0.28125 0
0.96875 0.3125 0
1 0.3125 0
0.0625 0.9375 0
0.09375 0.9375 0
0.0625 0.96875 0
0.09375 0.96875 0
0.0625 0.96875 0
0.09375 0.96875 0
0.0625 1 0
0.09375 1 0
0.09375 0.96875 0
0.125 0.96875 0
0.09375 1 0
0.125 1 0
0.75 0.90625 0
0.78125 0.90625 0
0.75 0.9375 0
0.78125 0.9375 0
0.75 0.9375 0
0.78125 0.9375 0
0.75 0.96875 0
0.78125 0.96875 0
0.75 0.96875 0
0.78125 0.96875 0
0.75 1 0
0.78125 1 0
0.90625 0.875 0
0.9375 0.875 0
0.90625 0.90625 0
0.9375 0.90625 0
0.90625 0.90625 0
0.9375 0.90625 0
0.90625 0.9375 0
0.9375 0.9375 0
0.3125 0.25 0
0.34375 0.25 0
0.3125 0.28125 0
0.34375 0.28125 0
0.3125 0.28125 0
0.34375 0.28125 0
0.3125 0.3125 0
0.34375 0.3125 0
0.90625 0.9375 0
0.9375 0.9375 0
0.90625 0.96875 0
0.9375 0.96875 0
0.875 0.96875 0
0.90625 0.96875 0
0.875 1 0
0.90625 1 0
0.90625 0.96875 0
0.9375 0.96875 0
0.90625 1 0
0.9375 1 0
0.3125 0.3125 0
0.34375 0.3125 0
0.3125 0.34375 0
0.34375 0.34375 0
0.34375 0.3125 0
0.375 0.3125 0
0.34375 0.34375 0
0.375 0.34375 0
0.3125 0.34375 0
0.34375 0.34375 0
0.3125 0.375 0
0.34375 0.375 0
0.34375 0.34375 0
0.375 0.34375 0
0.34375 0.375 0
0.375 0.375 0
0.625 0.3125 0
0.65625 0.3125 0
0.625 0.34375 0
0.65625 0.34375 0
0.65625 0.3125 0
0.6875 0.3125 0
0.65625 0.34375 0
0.6875 0.34375 0
0.625 0.34375 0
0.65625 0.34375 0
0.625 0.375 0
0.65625 0.375 0
0.65625 0.34375 0
0.6875 0.34375 0
0.65625 0.375 0
0.6875 0.375 0
0.3125 0.375 0
0.34375 0.375 0
0.3125 0.40625 0
0.34375 0.40625 0
0.3125 0.40625 0
0.34375 0.40625 0
0.3125 0.4375 0
0.34375 0.4375 0
0.28125 0.4375 0
0.3125 0.4375 0
0.28125 0.46875 0
0.3125 0.46875 0
0.28125 0.46875 0
0.3125 0.46875 0
0.28125 0.5 0
0.3125 0.5 0
0.3125 0.4375 0
0.34375 0.4375 0
0.3125 0.46875 0
0.34375 0.46875 0
0.3125 0.46875 0
0.34375 0.46875 0
0.3125 0.5 0
0.34375 0.5 0
0.3125 0.5 0
0.34375 0.5 0
0.3125 0.53125 0
0.34375 0.53125 0
0.3125 0.53125 0
0.34375 0.53125 0
0.3125 0.5625 0
0.34375 0.5625 0
0.34375 0.53125 0
0.375 0.53125 0
0.34375 0.5625 0
0.375 0.5625 0
0.25 0.5625 0
0.28125 0.5625 0
0.25 0.59375 0
0.28125 0.59375 0
0.28125 0.5625 0
0.3125 0.5625 0
0.28125 0.59375 0
0.3125 0.59375 0
0.25 0.59375 0
0.28125 0.59375 0
0.25 0.625 0
0.28125 0.625 0
0.28125 0.59375 0
0.3125 0.59375 0
0.28125 0.625 0
0.3125 0.625 0
0.375 0.625 0
0.40625 0.625 0
0.375 0.65625 0
0.40625 0.65625 0
0.375 0.65625 0
0.40625 0.65625 0
0.375 0.6875 0
0.40625 0.6875 0
0.375 0.6875 0
0.40625 0.6875 0
0.375 0.71875 0
0.40625 0.71875 0
0.375 0.71875 0
0.40625 0.71875 0
0.375 0.75 0
0.40625 0.75 0
0 0.75 0
0.03125 0.75 0
0 0.78125 0
0.03125 0.78125 0
0.03125 0.75 0
0.0625 0.75 0
0.03125 0.78125 0
0.0625 0.78125 0
0 0.78125 0
0.03125 0.78125 0
0 0.8125 0
0.03125 0.8125 0
0.03125 0.78125 0
0.0625 0.78125 0
0.03125 0.8125 0
0.0625 0.8125 0
0.0625 0.75 0
0.09375 0.75 0
[...]
POINT_DATA 22816
SCALARS U double 1
LOOKUP_TABLE default
0.0846105 -0.186715 0.0795056 -0.175353 -0.186713 0.0846114 -0.17536 0.0794939 0.0671345 -0.144145 0.0641468 -0.134338 0.0641468 -0.134338 0.0614254 -0.125204 -0.144174 0.0670934 -0.134423 0.0641171 -0.134423 0.0641171 -0.12536 0.0614623 0.161009 -0.0808942 0.155205 -0.0790598 -0.0808942 -0.315831 -0.0790598 -0.306803 0.155205 -0.0790598 0.150343 -0.0767693 0.364588 0.150343 0.352158 0.145089 0.352158 0.145089 0.34158 0.139994 -0.229744 -0.377014 -0.223122 -0.36545 0 0.224853 0 0.217616 0 0.217616 0 0.210848 0.150355 0.364595 0.145103 0.352165 0.145103 0.352165 0.140008 0.341587 0.150343 -0.0767693 0.145089 -0.0750616 0.145089 -0.0750616 0.139994 -0.0733853 -0.388307 -0.236415 -0.376614 -0.229562 -0.376614 -0.229562 -0.365365 -0.223017 0.513358 0.34158 0.496805 0.33031 0.34158 0.139994 0.33031 0.13498 0.33031 0.13498 0.318439 0.130021 0.318439 0.130021 0.308155 0.125258 0.308155 0.125258 0.29812 0.12081 -0.315831 -0.0808942 -0.306789 -0.0790497 -0.0808942 0.161009 -0.0790497 0.155212 -0.0790497 0.155212 -0.0767501 0.150355 0.29812 0.12081 0.288369 0.116466 0.288369 0.116466 0.278894 0.112251 0.278894 0.112251 0.269717 0.108175 0.269717 0.108175 0.260932 0.104369 0.140008 0.341587 0.134993 0.330318 0.341587 0.513362 0.330318 0.49681 0.134993 0.330318 0.130037 0.318448 0.130037 0.318448 0.125284 0.308158 0.125284 0.308158 0.120786 0.298115 0.224854 2.84842e-16 0.217617 2.76078e-16 0.217617 2.76078e-16 0.21085 2.67584e-16 0.120786 0.298115 0.116432 0.288355 0.116432 0.288355 0.112202 0.278885 0.112202 0.278885 0.108179 0.269716 0.108179 0.269716 0.104384 0.260941 0.260932 0.104369 0.252478 0.100759 0.252478 0.100759 0.24431 0.0973242 -0.0767501 0.150355 -0.0750363 0.145103 -0.0750363 0.145103 -0.0733606 0.140008 -0.198017 -0.323871 -0.192053 -0.313951 -0.192053 -0.313951 -0.186715 -0.304525 -0.186715 -0.304525 -0.181034 -0.295264 -0.181034 -0.295264 -0.175353 -0.286027 -0.223122 -0.36545 -0.216518 -0.354718 -0.365365 -0.223017 -0.354667 -0.216467 0.104384 0.260941 0.100782 0.252489 0.100782 0.252489 0.0973435 0.24432 0 0.173708 0 0.168839 0 0.168839 0 0.163423 0.168839 0.323065 0.163423 0.312644 -0.323861 -0.198005 -0.313946 -0.192046 -0.313946 -0.192046 -0.304523 -0.186713 -0.304523 -0.186713 -0.295266 -0.181036 -0.295266 -0.181036 -0.286033 -0.17536 0.139994 -0.0733853 0.13498 -0.0717902 0.13498 -0.0717902 0.130021 -0.0702627 0.173716 2.21835e-16 0.168851 2.1501e-16 0.323088 0.168851 0.312676 0.16344 0.168851 2.1501e-16 0.16344 2.08395e-16 -0.0733606 0.140008 -0.071771 0.134993 -0.071771 0.134993 -0.0702389 0.130037 -0.0702389 0.130037 -0.068709 0.125284 -0.068709 0.125284 -0.0670828 0.120786 -0.0670828 0.120786 -0.0659961 0.116432 -0.242763 -0.0659961 -0.236415 -0.0645478 -0.0659961 0.116432 -0.0645478 0.112202 0 0.127048 0 0.123006 0.127048 0.243201 0.123006 0.23499 0 0.123006 0 0.119218 0.123006 0.23499 0.119218 0.22802 0 0.198293 0 0.191803 0.198293 0.379053 0.191803 0.366841 0 0.191803 0 0.185796 0.191803 0.366841 0.185796 0.355458 0.221174 0.307855 0.214646 0.2983 0.126601 1.62298e-16 0.123104 1.57305e-16 0.235467 0.123104 0.228118 0.119308 0.123104 1.57305e-16 0.119308 1.52465e-16 0.307891 0.221218 0.298312 0.214661 0.379059 0.198296 0.366848 0.191807 0.198296 2.51372e-16 0.191807 2.43638e-16 0.366848 0.191807 0.355467 0.185801 0.191807 2.43638e-16 0.185801 2.36142e-16 0 0.153273 0 0.148412 0.153273 0.293245 0.148412 0.284235 0 0.148412 0 0.143858 0.293309 0.153307 0.28432 0.148469 0.153307 1.95769e-16 0.148469 1.89746e-16 0.148469 1.89746e-16 0.143862 1.83908e-16 0 0.135359 0 0.130624 0 0.130624 0 0.127048 0.135246 1.72765e-16 0.130637 1.6745e-16 0.130637 1.6745e-16 0.126601 1.62298e-16 0.0641171 0.159091 0.0627897 0.154914 0.159091 0.239839 0.154914 0.233701 0.0627897 0.154914 0.0614623 0.151197 0.154914 0.233701 0.151197 0.227158 0 0.185796 0 0.179341 0 0.179341 0 0.173708 0.130021 -0.0702627 0.125258 -0.0687545 0.125258 -0.0687545 0.12081 -0.0672374 0.189939 0.26401 0.183962 0.256136 0.183962 0.256136 0.178613 0.248433 0.185801 2.36142e-16 0.179348 2.28877e-16 0.179348 2.28877e-16 0.173716 2.21835e-16 0.178613 0.248433 0.173752 0.241806 0.173752 0.241806 0.168679 0.234696 0.241806 0.289083 0.234696 0.280502 0.233701 0.292079 0.227158 0.283458 0.227158 0.283458 0.220496 0.275437 0.220496 0.275437 0.214687 0.267763 0.264009 0.189938 0.25614 0.183963 0.25614 0.183963 0.248439 0.178615 0.12081 -0.0672374 0.116466 -0.0656369 0.116466 -0.0656369 0.112251 -0.0645743 0.248439 0.178615 0.241811 0.173754 0.289095 0.241811 0.280502 0.234696 0.241811 0.173754 0.234696 0.168679 0.112251 -0.0645743 0.108175 -0.0631565 -0.0645743 -0.23592 -0.0631565 -0.229744 0.108175 -0.0631565 0.104369 -0.0618339 -0.0631565 -0.229744 -0.0618339 -0.223122 -0.236415 -0.0645478 -0.229562 -0.0631758 -0.0645478 0.112202 -0.0631758 0.108179 -0.229562 -0.0631758 -0.223017 -0.0617839 -0.0631758 0.108179 -0.0617839 0.104384 0.104369 -0.0618339 0.100759 -0.0599807 0.100759 -0.0599807 0.0973242 -0.0584727 0.24431 0.0973242 0.236394 0.0940153 0.236394 0.0940153 0.228974 0.0908567 0.0973242 -0.0584727 0.0940153 -0.0569809 0.0940153 -0.0569809 0.0908567 -0.0555209 0.0908567 -0.0555209 0.0875248 -0.0542214 0.0875248 -0.0542214 0.0846105 -0.0510523 -0.0542214 -0.192053 -0.0510523 -0.186715 0.32546 0.215127 0.315975 0.208151 0.215127 0.0846105 0.208151 0.082058 0.315975 0.208151 0.306056 0.202136 0.208151 0.082058 0.202136 0.0795056 -0.175353 -0.286027 -0.169343 -0.276966 -0.169343 -0.276966 -0.164068 -0.268158 -0.164068 -0.268158 -0.158888 -0.259495 -0.158888 -0.259495 -0.153785 -0.251934 0 0.112239 0 0.108749 0.112239 0.214646 0.108749 0.208036 0 0.108749 0 0.105447 0.108749 0.208036 0.105447 0.201745 0.214646 0.2983 0.208036 0.289256 0.208036 0.289256 0.201745 0.280569 0 0.105447 0 0.102298 0 0.102298 0 0.0993251 0.102298 0.195708 0.0993251 0.189939 0.201745 0.280569 0.195708 0.272174 0.195708 0.272174 0.189939 0.26401 -0.0617839 0.104384 -0.0599421 0.100782 -0.0599421 0.100782 -0.0584465 0.0973435 -0.0584465 0.0973435 -0.0569626 0.0940311 -0.0569626 0.0940311 -0.0555082 0.0908694 0.0973435 0.24432 0.0940311 0.236406 0.0940311 0.236406 0.0908694 0.228987 0 0.163423 0 0.158236 0.163423 0.312644 0.158236 0.302764 0 0.158236 0 0.153273 0.158236 0.302764 0.153273 0.293245 -0.0555082 0.0908694 -0.054214 0.0875325 -0.192046 -0.054214 -0.186713 -0.0510508 -0.054214 0.0875325 -0.0510508 0.0846114 0.0846114 0.215125 0.0820527 0.20814 0.215125 0.325445 0.20814 0.315951 0.0820527 0.20814 0.0794939 0.20212 0.20814 0.315951 0.20212 0.306031 -0.286033 -0.17536 -0.276974 -0.169354 -0.276974 -0.169354 -0.268169 -0.164082 -0.268169 -0.164082 -0.259507 -0.158904 -0.259507 -0.158904 -0.25195 -0.153804 0.298312 0.214661 0.289256 0.208039 0.289256 0.208039 0.280564 0.201743 0.214661 0.112249 0.208039 0.108751 0.112249 1.43228e-16 0.108751 1.38821e-16 0.208039 0.108751 0.201743 0.105446 0.108751 1.38821e-16 0.105446 1.3455e-16 0.280564 0.201743 0.27217 0.195705 0.27217 0.195705 0.264009 0.189938 0.105446 1.3455e-16 0.102297 1.3041e-16 0.195705 0.102297 0.189938 0.0993243 0.102297 1.3041e-16 0.0993243 1.26398e-16 0.312676 0.16344 0.302812 0.15826 0.16344 2.08395e-16 0.15826 2.01983e-16 0.302812 0.15826 0.293309 0.153307 0.15826 2.01983e-16 0.153307 1.95769e-16 0 0.143858 0 0.139527 0.143858 0.275168 0.139527 0.267183 0 0.139527 0 0.135359 0.139527 0.267183 0.135359 0.25887 0.267183 0.371635 0.25887 0.359728 0.25887 0.359728 0.250298 0.348575 0.250298 0.348575 0.243201 0.338083 0.395933 0.315975 0.383199 0.306056 0.383199 0.306056 0.371277 0.296007 0.371277 0.296007 0.359839 0.287138 0.359839 0.287138 0.349024 0.278401 0.349024 0.278401 0.338938 0.270748 0.270748 0.178688 0.262018 0.173471 0.262018 0.173471 0.254526 0.168331 0.173471 0.0693923 0.168331 0.0671345 0.0708514 -0.0430491 0.0693923 -0.0413105 -0.0430491 -0.153785 -0.0413105 -0.148714 0.0693923 -0.0413105 0.0671345 -0.0385051 -0.0413105 -0.148714 -0.0385051 -0.144145 0.254526 0.168331 0.24716 0.163574 0.168331 0.0671345 0.163574 0.0656406 0.24716 0.163574 0.240115 0.159108 0.163574 0.0656406 0.159108 0.0641468 -0.153785 -0.251934 -0.148714 -0.243865 -0.251934 -0.328326 -0.243865 -0.31845 -0.148714 -0.243865 -0.144145 -0.236077 -0.243865 -0.31845 -0.236077 -0.308258 -0.31845 -0.366357 -0.308258 -0.354264 -0.366357 -0.382566 -0.354264 -0.370093 -0.144145 -0.236077 -0.139242 -0.228395 -0.236077 -0.308258 -0.228395 -0.298258 -0.139242 -0.228395 -0.134338 -0.220857 -0.228395 -0.298258 -0.220857 -0.288552 -0.308258 -0.354264 -0.298258 -0.342772 -0.354264 -0.370093 -0.342772 -0.358059 -0.298258 -0.342772 -0.288552 -0.331665 -0.342772 -0.358059 -0.331665 -0.346476 0.240115 0.159108 0.233406 0.154886 0.159108 0.0641468 0.154886 0.0627861 0.233406 0.154886 0.227089 0.15109 0.154886 0.0627861 0.15109 0.0614254 0.0614254 -0.0318891 0.0603652 -0.0312853 -0.0318891 -0.125204 -0.0312853 -0.120408 0.0603652 -0.0312853 0.059232 -0.0297593 -0.0312853 -0.120408 -0.0297593 -0.116188 -0.134338 -0.220857 -0.129771 -0.213514 -0.220857 -0.288552 -0.213514 -0.279124 -0.129771 -0.213514 -0.125204 -0.206344 -0.213514 -0.279124 -0.206344 -0.269968 -0.288552 -0.331665 -0.279124 -0.32091 -0.331665 -0.346476 -0.32091 -0.335265 -0.279124 -0.32091 -0.269968 -0.31048 -0.32091 -0.335265 -0.31048 -0.324392 -0.125204 -0.206344 -0.120408 -0.199372 -0.206344 -0.269968 -0.199372 -0.261076 -0.120408 -0.199372 -0.116188 -0.19261 -0.199372 -0.261076 -0.19261 -0.252445 -0.269968 -0.31048 -0.261076 -0.30036 -0.31048 -0.324392 -0.30036 -0.313843 -0.261076 -0.30036 -0.252445 -0.29054 -0.30036 -0.313843 -0.29054 -0.303613 0.315951 0.39589 0.306031 0.383159 0.2755 0.143862 0.266827 0.139497 0.143862 1.83908e-16 0.139497 1.7825e-16 0.266827 0.139497 0.258768 0.135246 0.139497 1.7825e-16 0.135246 1.72765e-16 0.306031 0.383159 0.295983 0.371246 0.295983 0.371246 0.287115 0.359816 0.287115 0.359816 0.278377 0.349003 0.278377 0.349003 0.27072 0.338913 -0.382566 -0.366365 -0.370093 -0.354276 -0.366365 -0.318464 -0.354276 -0.308281 -0.328337 -0.25195 -0.318464 -0.243885 -0.25195 -0.153804 -0.243885 -0.148738 -0.318464 -0.243885 -0.308281 -0.236107 -0.243885 -0.148738 -0.236107 -0.144174 -0.370093 -0.354276 -0.358059 -0.342794 -0.354276 -0.308281 -0.342794 -0.298298 -0.358059 -0.342794 -0.346476 -0.331707 -0.342794 -0.298298 -0.331707 -0.288628 -0.308281 -0.236107 -0.298298 -0.228445 -0.236107 -0.144174 -0.228445 -0.139299 -0.298298 -0.228445 -0.288628 -0.220947 -0.228445 -0.139299 -0.220947 -0.134423 -0.153804 -0.0430725 -0.148738 -0.0413385 -0.0430725 0.0708249 -0.0413385 0.06936 -0.148738 -0.0413385 -0.144174 -0.0385405 -0.0413385 0.06936 -0.0385405 0.0670934 0.178659 0.27072 0.173435 0.261982 0.06936 0.173435 0.0670934 0.168284 0.173435 0.261982 0.168284 0.254471 0.0670934 0.168284 0.0656053 0.163503 0.168284 0.254471 0.163503 0.247074 0.0656053 0.163503 0.0641171 0.159091 0.163503 0.247074 0.159091 0.239839 -0.346476 -0.331707 -0.335265 -0.320973 -0.331707 -0.288628 -0.320973 -0.279277 -0.335265 -0.320973 -0.324392 -0.310502 -0.320973 -0.279277 -0.310502 -0.270196 -0.288628 -0.220947 -0.279277 -0.213693 -0.220947 -0.134423 -0.213693 -0.129892 -0.279277 -0.213693 -0.270196 -0.206904 -0.213693 -0.129892 -0.206904 -0.12536 -0.324392 -0.310502 -0.313843 -0.300358 -0.310502 -0.270196 -0.300358 -0.260827 -0.313843 -0.300358 -0.303613 -0.29054 -0.300358 -0.260827 -0.29054 -0.252445 0.0795056 -0.0479237 0.0772787 -0.0477984 -0.0479237 -0.175353 -0.0477984 -0.169343 0.0772787 -0.0477984 0.0749499 -0.0463178 -0.0477984 -0.169343 -0.0463178 -0.164068 0.0749499 -0.0463178 0.0728367 -0.0447354 -0.0463178 -0.164068 -0.0447354 -0.158888 0.0728367 -0.0447354 0.0708514 -0.0430491 -0.0447354 -0.158888 -0.0430491 -0.153785 -0.17536 -0.0479329 -0.169354 -0.0478115 -0.0479329 0.0794939 -0.0478115 0.0772628 -0.169354 -0.0478115 -0.164082 -0.0463344 -0.0478115 0.0772628 -0.0463344 0.0749308 -0.164082 -0.0463344 -0.158904 -0.0447553 -0.0463344 0.0749308 -0.0447553 0.0728143 -0.158904 -0.0447553 -0.153804 -0.0430725 -0.0447553 0.0728143 -0.0430725 0.0708249 0 0.119218 0 0.11521 0 0.11521 0 0.112239 0.119308 1.52465e-16 0.115239 1.47774e-16 0.115239 1.47774e-16 0.112249 1.43228e-16 -0.12536 -0.0319491 -0.120222 -0.0312808 -0.0319491 0.0614623 -0.0312808 0.0603839 -0.120222 -0.0312808 -0.116188 -0.0297593 -0.0312808 0.0603839 -0.0297593 0.059232 0 0.0993251 0 0.0960636 0 0.0960636 0 0.0932564 0 0.0932564 0 0.0908492 0 0.0908492 0 0.0881343 0.0908492 0.173752 0.0881343 0.168679 0.0993243 1.26398e-16 0.0960635 1.22509e-16 0.0960635 1.22509e-16 0.0932567 1.1874e-16 0.0932567 1.1874e-16 0.0908495 1.15087e-16 0.173754 0.0908495 0.168679 0.0881343 0.0908495 1.15087e-16 0.0881343 1.11546e-16 0.210848 0.310378 0.207158 0.305373 0.310378 0.403312 0.305373 0.396857 0.207158 0.305373 0.20388 0.300393 0.305373 0.396857 0.300393 0.390532 0.762484 0.800573 0.750451 0.78797 0.800573 0.821333 0.78797 0.80836 0.750451 0.78797 0.738634 0.775777 0.78797 0.80836 0.775777 0.795562 0.821333 0.824313 0.80836 0.811204 0.824313 0.809449 0.811204 0.796508 0.80836 0.811204 0.795562 0.798246 0.811204 0.796508 0.798246 0.78377 0.795562 0.798246 0.78252 0.785601 0.798246 0.78377 0.785601 0.771183 0.78252 0.785601 0.77031 0.773413 0.785601 0.771183 0.773413 0.759351 0.692757 0.727525 0.681673 0.71573 0.727525 0.746106 0.71573 0.734195 0.681673 0.71573 0.670813 0.704302 0.71573 0.734195 0.704302 0.7225 0.472365 0.543785 0.464757 0.535112 0.464757 0.535112 0.457739 0.526682 0.670813 0.704302 0.660158 0.693099 0.704302 0.7225 0.693099 0.711001 0.660158 0.693099 0.6497 0.682093 0.693099 0.711001 0.682093 0.699692 0.6497 0.682093 0.639421 0.671275 0.682093 0.699692 0.671275 0.688568 0.639421 0.671275 0.62931 0.660642 0.671275 0.688568 0.660642 0.677628 0.379053 0.457739 0.372947 0.450509 0.457739 0.526682 0.450509 0.518383 0.372947 0.450509 0.366841 0.443344 0.450509 0.518383 0.443344 0.510144 0.366841 0.443344 0.361149 0.43629 0.443344 0.510144 0.43629 0.501998 0.361149 0.43629 0.355458 0.429279 0.43629 0.501998 0.429279 0.494063 0.62931 0.660642 0.61937 0.650213 0.660642 0.677628 0.650213 0.666882 0.61937 0.650213 0.60961 0.640102 0.650213 0.666882 0.640102 0.656352 -0.789769 -0.816374 -0.777703 -0.80396 -0.816374 -0.825307 -0.80396 -0.812782 -0.777703 -0.80396 -0.765851 -0.791826 -0.80396 -0.812782 -0.791826 -0.800467 0.543791 0.472371 0.535119 0.464763 0.535119 0.464763 0.52669 0.457746 0.52669 0.457746 0.518392 0.450517 0.457746 0.379059 0.450517 0.372954 0.518392 0.450517 0.510154 0.443353 0.450517 0.372954 0.443353 0.366848 0.510154 0.443353 0.502009 0.4363 0.443353 0.366848 0.4363 0.361158 0.502009 0.4363 0.494075 0.42929 0.4363 0.361158 0.42929 0.355467 -0.825307 -0.816374 -0.812782 -0.803958 -0.816374 -0.789769 -0.803958 -0.777699 -0.812782 -0.803958 -0.800467 -0.791822 -0.803958 -0.777699 -0.791822 -0.765843 -0.50653 -0.550609 -0.499193 -0.542289 -0.550609 -0.5826 -0.542289 -0.573947 -0.499193 -0.542289 -0.491716 -0.533847 -0.5826 -0.602081 -0.573947 -0.593042 -0.602081 -0.608613 -0.593042 -0.599463 -0.491716 -0.533847 -0.48433 -0.525964 -0.48433 -0.525964 -0.477187 -0.518082 -0.556541 -0.575254 -0.548103 -0.566548 -0.575254 -0.58149 -0.566548 -0.572692 0.355458 0.429279 0.349003 0.422024 0.349003 0.422024 0.343672 0.415525 0.809449 0.824313 0.796509 0.811204 0.824313 0.821333 0.811204 0.808361 0.796509 0.811204 0.783771 0.798248 0.811204 0.808361 0.798248 0.795563 0.821333 0.800573 0.808361 0.787971 0.800573 0.762484 0.787971 0.750452 0.808361 0.787971 0.795563 0.775778 0.787971 0.750452 0.775778 0.738635 0.783771 0.798248 0.771185 0.785603 0.798248 0.795563 0.785603 0.782522 0.771185 0.785603 0.759354 0.773416 0.785603 0.782522 0.773416 0.770312 0.74611 0.727529 0.7342 0.715734 0.727529 0.692761 0.715734 0.681678 0.7342 0.715734 0.722505 0.704307 0.715734 0.681678 0.704307 0.670819 0.722505 0.704307 0.711007 0.693105 0.704307 0.670819 0.693105 0.660164 0.711007 0.693105 0.699699 0.6821 0.693105 0.660164 0.6821 0.649706 0.699699 0.6821 0.688575 0.671283 0.6821 0.649706 0.671283 0.639428 0.688575 0.671283 0.677637 0.660651 0.671283 0.639428 0.660651 0.629319 0.759351 0.729096 0.746825 0.717194 0.729096 0.68282 0.717194 0.671744 0.746825 0.717194 0.73505 0.705664 0.717194 0.671744 0.705664 0.660944 0.68282 0.621744 0.671744 0.611618 0.621744 0.547059 0.611618 0.538068 0.671744 0.611618 0.660944 0.601737 0.611618 0.538068 0.601737 0.529546 0.73505 0.705664 0.72338 0.694381 0.705664 0.660944 0.694381 0.65047 0.72338 0.694381 0.711863 0.683288 0.694381 0.65047 0.683288 0.639781 0.660944 0.601737 0.65047 0.592291 0.601737 0.529546 0.592291 0.52056 0.592291 0.52056 0.582593 0.513358 0.677637 0.660651 0.666891 0.650223 0.660651 0.629319 0.650223 0.619379 0.666891 0.650223 0.656362 0.640113 0.650223 0.619379 0.640113 0.609621 0.42929 0.355467 0.422037 0.349014 0.422037 0.349014 0.415539 0.343684 -0.608613 -0.602094 -0.599463 -0.593053 -0.602094 -0.582631 -0.593053 -0.573974 -0.582631 -0.550676 -0.573974 -0.542344 -0.550676 -0.506676 -0.542344 -0.499313 -0.542344 -0.499313 -0.533871 -0.491728 -0.58149 -0.575255 -0.572692 -0.566544 -0.575255 -0.556541 -0.566544 -0.548093 -0.533871 -0.491728 -0.525956 -0.484302 -0.525956 -0.484302 -0.51806 -0.477141 0 0.105424 0 0.104632 0.105424 0.210848 0.104632 0.207158 0 0.104632 0 0.103014 0.104632 0.207158 0.103014 0.20388 -0.48722 -0.515368 -0.479701 -0.507415 -0.479701 -0.507415 -0.472466 -0.499736 0.711863 0.683288 0.70051 0.67235 0.683288 0.639781 0.67235 0.629668 0.70051 0.67235 0.689326 0.661599 0.67235 0.629668 0.661599 0.619549 0.582593 0.513358 0.573488 0.505081 0.573488 0.505081 0.564096 0.496805 0.689326 0.661599 0.678312 0.650999 0.661599 0.619549 0.650999 0.609539 0.678312 0.650999 0.667418 0.640582 0.650999 0.609539 0.640582 0.599797 0.564096 0.496805 0.554842 0.487545 0.554842 0.487545 0.545768 0.480065 0.389047 0.278038 0.382568 0.273291 0.278038 0.161009 0.273291 0.158107 0.382568 0.273291 0.376122 0.268666 0.273291 0.158107 0.268666 0.155205 0.468182 0.369961 0.46055 0.364588 0.667418 0.640582 0.656698 0.629943 0.656698 0.629943 0.646203 0.619876 0.646203 0.619876 0.635945 0.610384 0.635945 0.610384 0.625903 0.60078 0.610384 0.571602 0.60078 0.562377 0.571602 0.519883 0.562377 0.511554 0.376122 0.268666 0.369961 0.264016 0.268666 0.155205 0.264016 0.152774 0.369961 0.264016 0.364588 0.257466 0.264016 0.152774 0.257466 0.150343 -0.611512 -0.686218 -0.602193 -0.675711 -0.602193 -0.675711 -0.593026 -0.665366 0.46055 0.364588 0.45302 0.358373 0.45302 0.358373 0.445811 0.352158 -0.593026 -0.665366 -0.584084 -0.655136 -0.584084 -0.655136 -0.575326 -0.64564 0 0.103014 0 0.101408 0.103014 0.20388 0.101408 0.200407 0 0.101408 0 0.0991464 0.101408 0.200407 0.0991464 0.198293 -0.575326 -0.64564 -0.566868 -0.635942 0.529546 0.445811 0.52056 0.438194 0.445811 0.352158 0.438194 0.346869 0.52056 0.438194 0.513358 0.427469 0.438194 0.346869 0.427469 0.34158 0.20388 0.300393 0.200407 0.29554 0.300393 0.390532 0.29554 0.384075 0.200407 0.29554 0.198293 0.288673 0.29554 0.384075 0.288673 0.379053 -0.515357 -0.487204 -0.507407 -0.479688 -0.507407 -0.479688 -0.499729 -0.472456 -0.64564 -0.702092 -0.635942 -0.691226 -0.702092 -0.743049 -0.691226 -0.731668 -0.635942 -0.691226 -0.625989 -0.680668 -0.691226 -0.731668 -0.680668 -0.720482 -0.743049 -0.767982 -0.731668 -0.756255 -0.767982 -0.776348 -0.756255 -0.764505 -0.731668 -0.756255 -0.720482 -0.744711 -0.756255 -0.764505 -0.744711 -0.75284 -0.625989 -0.680668 -0.616633 -0.670308 -0.680668 -0.720482 -0.670308 -0.709511 -0.616633 -0.670308 -0.607354 -0.660186 -0.670308 -0.709511 -0.660186 -0.698736 -0.720482 -0.744711 -0.709511 -0.733362 -0.744711 -0.75284 -0.733362 -0.741366 -0.709511 -0.733362 -0.698736 -0.722204 -0.733362 -0.741366 -0.722204 -0.730087 0.467288 0.503173 0.459818 0.49513 0.459818 0.49513 0.45261 0.487374 -0.23592 -0.315032 -0.232832 -0.310343 -0.315032 -0.387431 -0.310343 -0.38177 -0.232832 -0.310343 -0.229744 -0.303379 -0.310343 -0.38177 -0.303379 -0.377014 -0.3817