# vtk DataFile Version 3.0
#This file was generated by the deal.II library on 2018/12/4 at 0:47:16
ASCII
DATASET UNSTRUCTURED_GRID

POINTS 35104 double
0.96875 0.59375 0
1 0.59375 0
0.96875 0.625 0
1 0.625 0
0.59375 0.96875 0
0.625 0.96875 0
0.59375 1 0
0.625 1 0
0.28125 0.65625 0
0.3125 0.65625 0
0.28125 0.6875 0
0.3125 0.6875 0
0.28125 0.6875 0
0.3125 0.6875 0
0.28125 0.71875 0
0.3125 0.71875 0
0.6875 0.65625 0
0.71875 0.65625 0
0.6875 0.6875 0
0.71875 0.6875 0
0.6875 0.6875 0
0.71875 0.6875 0
0.6875 0.71875 0
0.71875 0.71875 0
0.3125 0.5 0
0.34375 0.5 0
0.3125 0.53125 0
0.34375 0.53125 0
0.3125 0.53125 0
0.34375 0.53125 0
0.3125 0.5625 0
0.34375 0.5625 0
0.3125 0.5625 0
0.34375 0.5625 0
0.3125 0.59375 0
0.34375 0.59375 0
0.34375 0.5625 0
0.375 0.5625 0
0.34375 0.59375 0
0.375 0.59375 0
0.3125 0.59375 0
0.34375 0.59375 0
0.3125 0.625 0
0.34375 0.625 0
0.34375 0.59375 0
0.375 0.59375 0
0.34375 0.625 0
0.375 0.625 0
0.65625 0.5 0
0.6875 0.5 0
0.65625 0.53125 0
0.6875 0.53125 0
0.65625 0.53125 0
0.6875 0.53125 0
0.65625 0.5625 0
0.6875 0.5625 0
0.625 0.5625 0
0.65625 0.5625 0
0.625 0.59375 0
0.65625 0.59375 0
0.65625 0.5625 0
0.6875 0.5625 0
0.65625 0.59375 0
0.6875 0.59375 0
0.625 0.59375 0
0.65625 0.59375 0
0.625 0.625 0
0.65625 0.625 0
0.65625 0.59375 0
0.6875 0.59375 0
0.65625 0.625 0
0.6875 0.625 0
0.3125 0.75 0
0.34375 0.75 0
0.3125 0.78125 0
0.34375 0.78125 0
0.3125 0.78125 0
0.34375 0.78125 0
0.3125 0.8125 0
0.34375 0.8125 0
0.3125 0.8125 0
0.34375 0.8125 0
0.3125 0.84375 0
0.34375 0.84375 0
0.34375 0.8125 0
0.375 0.8125 0
0.34375 0.84375 0
0.375 0.84375 0
0.3125 0.84375 0
0.34375 0.84375 0
0.3125 0.875 0
0.34375 0.875 0
0.34375 0.84375 0
0.375 0.84375 0
0.34375 0.875 0
0.375 0.875 0
0.3125 0.875 0
0.34375 0.875 0
0.3125 0.90625 0
0.34375 0.90625 0
0.34375 0.875 0
0.375 0.875 0
0.34375 0.90625 0
0.375 0.90625 0
0.3125 0.90625 0
0.34375 0.90625 0
0.3125 0.9375 0
0.34375 0.9375 0
0.34375 0.90625 0
0.375 0.90625 0
0.34375 0.9375 0
0.375 0.9375 0
0.28125 0.9375 0
0.3125 0.9375 0
0.28125 0.96875 0
0.3125 0.96875 0
0.28125 0.96875 0
0.3125 0.96875 0
0.28125 1 0
0.3125 1 0
0.3125 0.9375 0
0.34375 0.9375 0
0.3125 0.96875 0
0.34375 0.96875 0
0.3125 0.96875 0
0.34375 0.96875 0
0.3125 1 0
0.34375 1 0
0.65625 0.75 0
0.6875 0.75 0
0.65625 0.78125 0
0.6875 0.78125 0
0.65625 0.78125 0
0.6875 0.78125 0
0.65625 0.8125 0
0.6875 0.8125 0
0.625 0.8125 0
0.65625 0.8125 0
0.625 0.84375 0
0.65625 0.84375 0
0.65625 0.8125 0
0.6875 0.8125 0
0.65625 0.84375 0
0.6875 0.84375 0
0.625 0.84375 0
0.65625 0.84375 0
0.625 0.875 0
0.65625 0.875 0
0.65625 0.84375 0
0.6875 0.84375 0
0.65625 0.875 0
0.6875 0.875 0
0.625 0.875 0
0.65625 0.875 0
0.625 0.90625 0
0.65625 0.90625 0
0.65625 0.875 0
0.6875 0.875 0
0.65625 0.90625 0
0.6875 0.90625 0
0.625 0.90625 0
0.65625 0.90625 0
0.625 0.9375 0
0.65625 0.9375 0
0.65625 0.90625 0
0.6875 0.90625 0
0.65625 0.9375 0
0.6875 0.9375 0
0.3125 0.625 0
0.34375 0.625 0
0.3125 0.65625 0
0.34375 0.65625 0
0.3125 0.65625 0
0.34375 0.65625 0
0.3125 0.6875 0
0.34375 0.6875 0
0.3125 0.6875 0
0.34375 0.6875 0
0.3125 0.71875 0
0.34375 0.71875 0
0.3125 0.71875 0
0.34375 0.71875 0
0.3125 0.75 0
0.34375 0.75 0
0.65625 0.625 0
0.6875 0.625 0
0.65625 0.65625 0
0.6875 0.65625 0
0.65625 0.65625 0
0.6875 0.65625 0
0.65625 0.6875 0
0.6875 0.6875 0
0.65625 0.6875 0
0.6875 0.6875 0
0.65625 0.71875 0
0.6875 0.71875 0
0.65625 0.71875 0
0.6875 0.71875 0
0.65625 0.75 0
0.6875 0.75 0
0.65625 0.9375 0
0.6875 0.9375 0
0.65625 0.96875 0
0.6875 0.96875 0
0.65625 0.96875 0
0.6875 0.96875 0
0.65625 1 0
0.6875 1 0
0.6875 0.9375 0
0.71875 0.9375 0
0.6875 0.96875 0
0.71875 0.96875 0
0.6875 0.96875 0
0.71875 0.96875 0
0.6875 1 0
0.71875 1 0
0 0.875 0
0.03125 0.875 0
0 0.90625 0
0.03125 0.90625 0
0 0.90625 0
0.03125 0.90625 0
0 0.9375 0
0.03125 0.9375 0
0 0.9375 0
0.03125 0.9375 0
0 0.96875 0
0.03125 0.96875 0
0.96875 0.875 0
1 0.875 0
0.96875 0.90625 0
1 0.90625 0
0.96875 0.90625 0
1 0.90625 0
0.96875 0.9375 0
1 0.9375 0
0.96875 0.9375 0
1 0.9375 0
0.96875 0.96875 0
1 0.96875 0
0.0625 0.15625 0
0.078125 0.15625 0
0.0625 0.171875 0
0.078125 0.171875 0
0.0625 0.171875 0
0.078125 0.171875 0
0.0625 0.1875 0
0.078125 0.1875 0
0.0625 0 0
0.078125 0 0
0.0625 0.015625 0
0.078125 0.015625 0
0.078125 0 0
0.09375 0 0
0.078125 0.015625 0
0.09375 0.015625 0
0.0625 0.015625 0
0.078125 0.015625 0
0.0625 0.03125 0
0.078125 0.03125 0
0.078125 0.015625 0
0.09375 0.015625 0
0.078125 0.03125 0
0.09375 0.03125 0
0.09375 0 0
0.109375 0 0
0.09375 0.015625 0
0.109375 0.015625 0
0.09375 0.015625 0
0.109375 0.015625 0
0.09375 0.03125 0
0.109375 0.03125 0
0.0625 0.03125 0
0.078125 0.03125 0
0.0625 0.046875 0
0.078125 0.046875 0
0.078125 0.03125 0
0.09375 0.03125 0
0.078125 0.046875 0
0.09375 0.046875 0
0.0625 0.046875 0
0.078125 0.046875 0
0.0625 0.0625 0
0.078125 0.0625 0
0.078125 0.046875 0
0.09375 0.046875 0
0.078125 0.0625 0
0.09375 0.0625 0
0.09375 0.03125 0
0.109375 0.03125 0
0.09375 0.046875 0
0.109375 0.046875 0
0.09375 0.046875 0
0.109375 0.046875 0
0.09375 0.0625 0
0.109375 0.0625 0
0.109375 0.046875 0
0.125 0.046875 0
0.109375 0.0625 0
0.125 0.0625 0
0.921875 0.15625 0
0.9375 0.15625 0
0.921875 0.171875 0
0.9375 0.171875 0
0.921875 0.171875 0
0.9375 0.171875 0
0.921875 0.1875 0
0.9375 0.1875 0
0.0625 0.0625 0
0.078125 0.0625 0
0.0625 0.078125 0
0.078125 0.078125 0
0.078125 0.0625 0
0.09375 0.0625 0
0.078125 0.078125 0
0.09375 0.078125 0
0.0625 0.078125 0
0.078125 0.078125 0
0.0625 0.09375 0
0.078125 0.09375 0
0.078125 0.078125 0
0.09375 0.078125 0
0.078125 0.09375 0
0.09375 0.09375 0
0.09375 0.0625 0
0.109375 0.0625 0
0.09375 0.078125 0
0.109375 0.078125 0
0.109375 0.0625 0
0.125 0.0625 0
0.109375 0.078125 0
0.125 0.078125 0
0.09375 0.078125 0
0.109375 0.078125 0
0.09375 0.09375 0
0.109375 0.09375 0
0.109375 0.078125 0
0.125 0.078125 0
0.109375 0.09375 0
0.125 0.09375 0
0.453125 0.328125 0
0.46875 0.328125 0
0.453125 0.34375 0
0.46875 0.34375 0
0.46875 0.328125 0
0.484375 0.328125 0
0.46875 0.34375 0
0.484375 0.34375 0
0.484375 0.328125 0
0.5 0.328125 0
0.484375 0.34375 0
0.5 0.34375 0
0.453125 0.34375 0
0.46875 0.34375 0
0.453125 0.359375 0
0.46875 0.359375 0
0.453125 0.359375 0
0.46875 0.359375 0
0.453125 0.375 0
0.46875 0.375 0
0.46875 0.34375 0
0.484375 0.34375 0
0.46875 0.359375 0
0.484375 0.359375 0
0.484375 0.34375 0
0.5 0.34375 0
0.484375 0.359375 0
0.5 0.359375 0
0.078125 0.25 0
0.09375 0.25 0
0.078125 0.265625 0
0.09375 0.265625 0
0.078125 0.265625 0
0.09375 0.265625 0
0.078125 0.28125 0
0.09375 0.28125 0
0.0625 0.09375 0
0.078125 0.09375 0
0.0625 0.109375 0
0.078125 0.109375 0
0.078125 0.09375 0
0.09375 0.09375 0
0.078125 0.109375 0
0.09375 0.109375 0
0.0625 0.109375 0
0.078125 0.109375 0
0.0625 0.125 0
0.078125 0.125 0
0.078125 0.109375 0
0.09375 0.109375 0
0.078125 0.125 0
0.09375 0.125 0
0.21875 0.109375 0
0.234375 0.109375 0
0.21875 0.125 0
0.234375 0.125 0
0.09375 0.09375 0
0.109375 0.09375 0
0.09375 0.109375 0
0.109375 0.109375 0
0.109375 0.09375 0
0.125 0.09375 0
0.109375 0.109375 0
0.125 0.109375 0
0.09375 0.109375 0
0.109375 0.109375 0
0.09375 0.125 0
0.109375 0.125 0
0.109375 0.109375 0
0.125 0.109375 0
0.109375 0.125 0
0.125 0.125 0
0.125 0.03125 0
0.140625 0.03125 0
0.125 0.046875 0
0.140625 0.046875 0
0.125 0.046875 0
0.140625 0.046875 0
0.125 0.0625 0
0.140625 0.0625 0
0.90625 0.25 0
0.921875 0.25 0
0.90625 0.265625 0
0.921875 0.265625 0
0.90625 0.265625 0
0.921875 0.265625 0
0.90625 0.28125 0
0.921875 0.28125 0
0.203125 0 0
0.21875 0 0
0.203125 0.015625 0
0.21875 0.015625 0
0.203125 0.015625 0
0.21875 0.015625 0
0.203125 0.03125 0
0.21875 0.03125 0
0.21875 0 0
0.234375 0 0
0.21875 0.015625 0
0.234375 0.015625 0
0.234375 0 0
0.25 0 0
0.234375 0.015625 0
0.25 0.015625 0
0.21875 0.015625 0
0.234375 0.015625 0
0.21875 0.03125 0
0.234375 0.03125 0
0.234375 0.015625 0
0.25 0.015625 0
0.234375 0.03125 0
0.25 0.03125 0
0.203125 0.03125 0
0.21875 0.03125 0
0.203125 0.046875 0
0.21875 0.046875 0
0.203125 0.046875 0
0.21875 0.046875 0
0.203125 0.0625 0
0.21875 0.0625 0
0.21875 0.03125 0
0.234375 0.03125 0
0.21875 0.046875 0
0.234375 0.046875 0
0.234375 0.03125 0
0.25 0.03125 0
0.234375 0.046875 0
0.25 0.046875 0
0.21875 0.046875 0
0.234375 0.046875 0
0.21875 0.0625 0
0.234375 0.0625 0
0.234375 0.046875 0
0.25 0.046875 0
0.234375 0.0625 0
0.25 0.0625 0
0.125 0.0625 0
0.140625 0.0625 0
0.125 0.078125 0
0.140625 0.078125 0
0.125 0.078125 0
0.140625 0.078125 0
0.125 0.09375 0
0.140625 0.09375 0
0.140625 0.078125 0
0.15625 0.078125 0
0.140625 0.09375 0
0.15625 0.09375 0
0.15625 0.0625 0
0.171875 0.0625 0
0.15625 0.078125 0
0.171875 0.078125 0
0.5 0.328125 0
0.515625 0.328125 0
0.5 0.34375 0
0.515625 0.34375 0
0.515625 0.328125 0
0.53125 0.328125 0
0.515625 0.34375 0
0.53125 0.34375 0
0.53125 0.328125 0
0.546875 0.328125 0
0.53125 0.34375 0
0.546875 0.34375 0
0.5 0.34375 0
0.515625 0.34375 0
0.5 0.359375 0
0.515625 0.359375 0
0.515625 0.34375 0
0.53125 0.34375 0
0.515625 0.359375 0
0.53125 0.359375 0
0.53125 0.34375 0
0.546875 0.34375 0
0.53125 0.359375 0
0.546875 0.359375 0
0.53125 0.359375 0
0.546875 0.359375 0
0.53125 0.375 0
0.546875 0.375 0
0.0625 0.125 0
0.078125 0.125 0
0.0625 0.140625 0
0.078125 0.140625 0
0.078125 0.125 0
0.09375 0.125 0
0.078125 0.140625 0
0.09375 0.140625 0
0.0625 0.140625 0
0.078125 0.140625 0
0.0625 0.15625 0
0.078125 0.15625 0
0.078125 0.140625 0
0.09375 0.140625 0
0.078125 0.15625 0
0.09375 0.15625 0
0.09375 0.125 0
0.109375 0.125 0
0.09375 0.140625 0
0.109375 0.140625 0
0.109375 0.125 0
0.125 0.125 0
0.109375 0.140625 0
0.125 0.140625 0
0.09375 0.140625 0
0.109375 0.140625 0
0.09375 0.15625 0
0.109375 0.15625 0
0.109375 0.140625 0
0.125 0.140625 0
0.109375 0.15625 0
0.125 0.15625 0
0.09375 0.15625 0
0.109375 0.15625 0
0.09375 0.171875 0
0.109375 0.171875 0
0.109375 0.15625 0
0.125 0.15625 0
0.109375 0.171875 0
0.125 0.171875 0
0.09375 0.171875 0
0.109375 0.171875 0
0.09375 0.1875 0
0.109375 0.1875 0
0.109375 0.171875 0
0.125 0.171875 0
0.109375 0.1875 0
0.125 0.1875 0
0 0.125 0
0.015625 0.125 0
0 0.140625 0
[...]
POINT_DATA 35104
SCALARS U double 1
LOOKUP_TABLE default
0.128786 1.64134e-16 0.12481 1.59084e-16 -0.195394 -0.118123 -0.188796 -0.113887 0.193074 0.0770916 0.187106 0.0748259 0.187106 0.0748259 0.181624 0.0727134 0.0770751 0.193058 0.0748043 0.187085 0.0748043 0.187085 0.0726858 0.181596 0.0902008 -0.0535201 0.087198 -0.0519742 0.087198 -0.0519742 0.084386 -0.0507192 0.084386 -0.0507192 0.0817158 -0.0491659 -0.0507192 -0.181863 -0.0491659 -0.176167 0.0817158 -0.0491659 0.0791344 -0.0476174 -0.0491659 -0.176167 -0.0476174 -0.170796 -0.053514 0.0902038 -0.0519735 0.087195 -0.0519735 0.087195 -0.0507228 0.0843797 -0.181865 -0.0507228 -0.176173 -0.0491733 -0.0507228 0.0843797 -0.0491733 0.0817069 -0.176173 -0.0491733 -0.170805 -0.0476285 -0.0491733 0.0817069 -0.0476285 0.0791223 0.0704053 -0.0412887 0.068572 -0.0397133 0.068572 -0.0397133 0.0667848 -0.0383385 0.0667848 -0.0383385 0.0650823 -0.036744 -0.0383385 -0.140389 -0.036744 -0.135597 0.0650823 -0.036744 0.0634961 -0.0351884 -0.036744 -0.135597 -0.0351884 -0.130999 0.0634961 -0.0351884 0.0619302 -0.0336454 -0.0351884 -0.130999 -0.0336454 -0.126533 0.0619302 -0.0336454 0.0607613 -0.0321547 -0.0336454 -0.126533 -0.0321547 -0.122274 0.148283 0.0607613 0.144161 0.0593725 0.144161 0.0593725 0.140288 0.0580592 0.0607613 -0.0321547 0.0593725 -0.0305138 0.0593725 -0.0305138 0.0580592 -0.02917 -0.0413203 0.0703711 -0.0397509 0.0685307 -0.0397509 0.0685307 -0.0383805 0.0667375 -0.140425 -0.0383805 -0.135633 -0.0367855 -0.0383805 0.0667375 -0.0367855 0.0650332 -0.135633 -0.0367855 -0.131025 -0.0352205 -0.0367855 0.0650332 -0.0352205 0.0634543 -0.131025 -0.0352205 -0.126529 -0.0336551 -0.0352205 0.0634543 -0.0336551 0.0619036 -0.126529 -0.0336551 -0.122181 -0.0321479 -0.0336551 0.0619036 -0.0321479 0.0607441 0.0791344 -0.0476174 0.0770916 -0.0458179 0.0770916 -0.0458179 0.0748259 -0.0443033 0.0748259 -0.0443033 0.0727134 -0.042804 0.0727134 -0.042804 0.0704053 -0.0412887 -0.0476285 0.0791223 -0.0458332 0.0770751 -0.0458332 0.0770751 -0.0443234 0.0748043 -0.0443234 0.0748043 -0.0428295 0.0726858 -0.0428295 0.0726858 -0.0413203 0.0703711 -0.0321479 0.0607441 -0.0305258 0.0593629 -0.0305258 0.0593629 -0.02917 0.0580592 0.0607441 0.148269 0.0593629 0.144139 0.0593629 0.144139 0.0580592 0.140288 0 0.0974476 0 0.094454 0 0.094454 0 0.0916774 0 0.0916774 0 0.0890549 0.0974455 1.23895e-16 0.094452 1.20083e-16 0.094452 1.20083e-16 0.0916758 1.16389e-16 0.0916758 1.16389e-16 0.0890541 1.12808e-16 0.383436 0.463603 0.377341 0.456067 0.377341 0.456067 0.371609 0.449107 0.449437 0.543267 0.442372 0.534726 0.543267 0.625338 0.534726 0.615479 0.442372 0.534726 0.435421 0.526326 0.534726 0.615479 0.526326 0.605835 0.625338 0.693872 0.615479 0.682881 0.615479 0.682881 0.605835 0.672065 0.435421 0.526326 0.428577 0.518063 0.526326 0.605835 0.518063 0.596343 0.428577 0.518063 0.421834 0.509915 0.518063 0.596343 0.509915 0.586989 0.605835 0.672065 0.596343 0.661899 0.596343 0.661899 0.586989 0.65136 0.661899 0.712925 0.65136 0.701595 0.463606 0.383439 0.456071 0.377344 0.456071 0.377344 0.449111 0.371613 0.421834 0.509915 0.415188 0.501877 0.509915 0.586989 0.501877 0.577709 0.415188 0.501877 0.408639 0.493951 0.501877 0.577709 0.493951 0.568566 0.586989 0.65136 0.577709 0.641055 0.65136 0.701595 0.641055 0.690547 0.577709 0.641055 0.568566 0.630863 0.641055 0.690547 0.630863 0.679645 -0.531041 -0.562022 -0.522954 -0.553428 -0.562022 -0.580811 -0.553428 -0.57199 -0.580811 -0.587122 -0.57199 -0.578229 -0.522954 -0.553428 -0.514967 -0.54498 -0.514967 -0.54498 -0.507474 -0.536757 -0.553428 -0.57199 -0.54498 -0.563398 -0.57199 -0.578229 -0.563398 -0.569473 0.42162 0.485209 0.414862 0.477545 0.414862 0.477545 0.408458 0.470053 0.408639 0.493951 0.402191 0.486149 0.493951 0.568566 0.486149 0.559564 0.402191 0.486149 0.395848 0.478479 0.486149 0.559564 0.478479 0.550724 0.637759 0.580623 0.627508 0.571292 0.568566 0.630863 0.559564 0.620837 0.630863 0.679645 0.620837 0.668457 0.559564 0.620837 0.550724 0.610992 0.620837 0.668457 0.610992 0.657998 0.724166 0.760431 0.712925 0.748262 0.712925 0.748262 0.701595 0.736433 0.485217 0.421626 0.477554 0.41487 0.477554 0.41487 0.470062 0.408466 0.761676 0.713443 0.749633 0.702155 0.749633 0.702155 0.73779 0.691052 0.713443 0.649767 0.702155 0.639464 0.649767 0.572024 0.639464 0.562919 0.702155 0.639464 0.691052 0.629326 0.639464 0.562919 0.629326 0.553958 0.73779 0.691052 0.726143 0.680161 0.726143 0.680161 0.714734 0.669533 0.691052 0.629326 0.680161 0.619369 0.629326 0.553958 0.619369 0.545112 0.680161 0.619369 0.669533 0.609661 0.619369 0.545112 0.609661 0.536364 0.701595 0.736433 0.690547 0.725235 0.690547 0.725235 0.679645 0.713853 0.725235 0.744107 0.713853 0.731873 0.755742 0.758512 0.744107 0.746521 -0.587122 -0.580804 -0.578229 -0.571985 -0.580804 -0.56201 -0.571985 -0.553419 -0.56201 -0.531022 -0.553419 -0.522942 -0.578229 -0.571985 -0.569473 -0.563394 -0.571985 -0.553419 -0.563394 -0.544973 -0.553419 -0.522942 -0.544973 -0.514958 -0.544973 -0.514958 -0.536749 -0.507464 0.395848 0.478479 0.38961 0.470951 0.478479 0.550724 0.470951 0.542055 0.38961 0.470951 0.383436 0.463603 0.470951 0.542055 0.463603 0.533593 0.550724 0.610992 0.542055 0.601377 0.610992 0.657998 0.601377 0.647651 0.542055 0.601377 0.533593 0.591884 0.601377 0.647651 0.591884 0.637464 0.533593 0.591884 0.524932 0.582537 0.591884 0.637464 0.582537 0.627407 0.524932 0.582537 0.516752 0.573324 0.582537 0.627407 0.573324 0.617485 0 0.104544 0 0.102892 0.104544 0.206827 0.102892 0.203558 0 0.102892 0 0.101262 0.102892 0.203558 0.101262 0.200334 0.699954 0.687391 0.689108 0.676364 0.686795 0.689108 0.675739 0.678097 0.689108 0.676364 0.678097 0.665667 0.675739 0.678097 0.665006 0.667324 0.678097 0.665667 0.667324 0.655159 0.516752 0.573324 0.508619 0.564336 0.573324 0.617485 0.564336 0.607648 0.508619 0.564336 0.500636 0.555492 0.564336 0.607648 0.555492 0.598435 0.500636 0.555492 0.492706 0.546824 0.555492 0.598435 0.546824 0.589003 0.492706 0.546824 0.485209 0.538243 0.546824 0.589003 0.538243 0.579695 0.665006 0.667324 0.654383 0.656798 0.667324 0.655159 0.656798 0.644808 0.654383 0.656798 0.644417 0.64644 0.656798 0.644808 0.64644 0.634584 0.598435 0.628536 0.589003 0.618355 0.628536 0.644417 0.618355 0.634231 0.589003 0.618355 0.579695 0.608557 0.618355 0.634231 0.608557 0.62419 0.644417 0.64644 0.634231 0.636288 0.64644 0.634584 0.636288 0.624408 0.634231 0.636288 0.62419 0.626255 0.636288 0.624408 0.626255 0.614826 -0.43934 -0.477334 -0.43267 -0.469736 -0.43267 -0.469736 -0.426085 -0.46293 -0.426085 -0.46293 -0.419581 -0.45587 -0.46293 -0.489768 -0.45587 -0.482291 -0.419581 -0.45587 -0.413364 -0.449017 -0.45587 -0.482291 -0.449017 -0.474972 0.627508 0.571292 0.617525 0.562192 0.617525 0.562192 0.607682 0.553159 0.607682 0.553159 0.597931 0.544233 0.597931 0.544233 0.588776 0.535864 0.572024 0.4819 0.562919 0.474179 0.4819 0.381343 0.474179 0.375165 0.562919 0.474179 0.553958 0.466586 0.474179 0.375165 0.466586 0.369083 0.553958 0.466586 0.545112 0.459126 0.466586 0.369083 0.459126 0.363174 0.545112 0.459126 0.536364 0.45149 0.628951 0.588776 0.618817 0.579386 0.618817 0.579386 0.608982 0.570152 0.588776 0.535864 0.579386 0.527341 0.535864 0.471525 0.527341 0.463811 0.579386 0.527341 0.570152 0.518906 0.527341 0.463811 0.518906 0.456344 0.608982 0.570152 0.599302 0.56121 0.570152 0.518906 0.56121 0.510548 0.518906 0.456344 0.510548 0.449026 0.510548 0.449026 0.502382 0.441867 0.259247 0.149853 0.255011 0.14723 -0.513202 -0.599403 -0.505461 -0.590323 -0.505461 -0.590323 -0.49784 -0.581397 0.536364 0.45149 0.527404 0.444251 0.527404 0.444251 0.519136 0.437134 -0.49784 -0.581397 -0.49032 -0.572601 -0.49032 -0.572601 -0.48295 -0.563791 0 0.101262 0 0.0996764 0.101262 0.200334 0.0996764 0.197133 0 0.0996764 0 0.0981198 0.0996764 0.197133 0.0981198 0.194161 -0.48295 -0.563791 -0.475692 -0.555499 -0.475692 -0.555499 -0.468564 -0.547013 -0.555499 -0.623193 -0.547013 -0.613599 -0.468564 -0.547013 -0.461528 -0.538723 -0.547013 -0.613599 -0.538723 -0.604289 -0.461528 -0.538723 -0.454625 -0.530639 -0.538723 -0.604289 -0.530639 -0.59505 -0.67263 -0.731295 -0.662394 -0.720118 -0.662394 -0.720118 -0.652395 -0.709098 -0.477324 -0.439327 -0.469728 -0.432659 -0.469728 -0.432659 -0.462923 -0.426076 -0.489763 -0.462923 -0.482287 -0.455864 -0.462923 -0.426076 -0.455864 -0.419573 -0.482287 -0.455864 -0.474969 -0.449013 -0.455864 -0.419573 -0.449013 -0.413358 -0.652395 -0.709098 -0.642563 -0.698827 -0.642563 -0.698827 -0.632886 -0.688365 -0.698827 -0.740102 -0.688365 -0.728741 -0.740102 -0.765019 -0.728741 -0.753328 -0.765019 -0.773396 -0.753328 -0.761571 -0.40325 -0.470351 -0.397278 -0.463372 -0.470351 -0.527458 -0.463372 -0.519552 -0.397278 -0.463372 -0.39138 -0.456452 -0.463372 -0.519552 -0.456452 -0.511745 -0.39138 -0.456452 -0.385551 -0.449621 -0.456452 -0.511745 -0.449621 -0.504063 -0.385551 -0.449621 -0.379799 -0.442873 -0.449621 -0.504063 -0.442873 -0.496495 -0.527458 -0.573298 -0.519552 -0.564576 -0.573298 -0.606646 -0.564576 -0.597459 -0.519552 -0.564576 -0.511745 -0.556051 -0.564576 -0.597459 -0.556051 -0.5884 -0.606646 -0.627035 -0.597459 -0.617472 -0.627035 -0.633866 -0.617472 -0.624195 -0.597459 -0.617472 -0.5884 -0.608091 -0.617472 -0.624195 -0.608091 -0.614699 -0.511745 -0.556051 -0.504063 -0.54767 -0.556051 -0.5884 -0.54767 -0.579499 -0.504063 -0.54767 -0.496495 -0.539494 -0.54767 -0.579499 -0.539494 -0.570713 -0.5884 -0.608091 -0.579499 -0.598862 -0.608091 -0.614699 -0.598862 -0.605363 -0.579499 -0.598862 -0.570713 -0.589772 -0.598862 -0.605363 -0.589772 -0.596173 0.413923 0.459323 0.407419 0.451763 0.407419 0.451763 0.401023 0.445008 0.401023 0.445008 0.394779 0.437999 0.445008 0.479211 0.437999 0.471653 0.394779 0.437999 0.388601 0.431258 0.437999 0.471653 0.431258 0.46424 -0.379799 -0.442873 -0.374133 -0.436352 -0.442873 -0.496495 -0.436352 -0.488806 -0.0773436 -0.191036 -0.0763853 -0.188193 -0.0763853 -0.188193 -0.075447 -0.18557 0.381343 0.4819 0.375166 0.47418 0.4819 0.572024 0.47418 0.562921 0.375166 0.47418 0.369086 0.466589 0.47418 0.562921 0.466589 0.55396 0.4552 0.505001 0.448061 0.497083 0.448061 0.497083 0.441062 0.489494 0.497083 0.535504 0.489494 0.526968 0.149858 0.259252 0.147236 0.255018 0.369086 0.466589 0.363179 0.459131 0.466589 0.55396 0.459131 0.545116 0.459131 0.545116 0.451496 0.536369 0.451496 0.536369 0.444259 0.527411 0.444259 0.527411 0.437143 0.519144 0 0.1187 0 0.116834 0.1187 0.23483 0.116834 0.231138 0 0.116834 0 0.114997 0.116834 0.231138 0.114997 0.227505 0.535504 0.562053 0.526968 0.553129 0.562053 0.576458 0.553129 0.567348 0.576458 0.578343 0.567348 0.569219 0.578343 0.567683 0.569219 0.558631 0.526968 0.553129 0.518283 0.544307 0.553129 0.567348 0.544307 0.558471 0.518283 0.544307 0.510493 0.535733 0.567348 0.569219 0.558471 0.560235 0.569219 0.558631 0.560235 0.54989 0.553188 0.517869 0.544411 0.509287 0.567683 0.544411 0.558631 0.535876 0.544411 0.509287 0.535876 0.501558 0.558631 0.535876 0.54989 0.52736 0.535876 0.501558 0.52736 0.493605 0.52736 0.493605 0.51902 0.485762 0.501558 0.456484 0.493605 0.44904 0.456484 0.40108 0.44904 0.394723 0.493605 0.44904 0.485762 0.44187 0.44904 0.394723 0.44187 0.388218 0.44187 0.388218 0.43486 0.382105 0.478089 0.43486 0.470537 0.428129 0.43486 0.382105 0.428129 0.376059 0.658003 0.610995 0.647656 0.601381 0.610995 0.550727 0.601381 0.542059 0.647656 0.601381 0.637469 0.591889 0.601381 0.542059 0.591889 0.533598 0.550727 0.478482 0.542059 0.470954 0.478482 0.39585 0.470954 0.389613 0.542059 0.470954 0.533598 0.463606 0.470954 0.389613 0.463606 0.383439 0.471829 0.441353 0.464076 0.434405 0.464076 0.434405 0.457134 0.427561 0.637469 0.591889 0.627414 0.582543 0.591889 0.533598 0.582543 0.524937 0.627414 0.582543 0.617492 0.57333 0.582543 0.524937 0.57333 0.516757 0.388235 0.441887 0.382122 0.434878 0.382122 0.434878 0.376077 0.428147 0.434878 0.478106 0.428147 0.470555 0.617492 0.57333 0.607655 0.564342 0.57333 0.516757 0.564342 0.508625 0.607655 0.564342 0.598443 0.555499 0.564342 0.508625 0.555499 0.500642 0.598443 0.555499 0.589011 0.546831 0.555499 0.500642 0.546831 0.492713 0.589011 0.546831 0.579705 0.538252 0.546831 0.492713 0.538252 0.485217 0.441423 0.471808 0.434493 0.464429 0.434493 0.464429 0.427686 0.457299 0.464429 0.484203 0.457299 0.476617 -0.731295 -0.67263 -0.720118 -0.662393 -0.720118 -0.662393 -0.709098 -0.652394 -0.454625 -0.530639 -0.447848 -0.522697 -0.530639 -0.59505 -0.522697 -0.586405 -0.447848 -0.522697 -0.441174 -0.514889 -0.522697 -0.586405 -0.514889 -0.577525 -0.773396 -0.765019 -0.761571 -0.753328 -0.765019 -0.740101 -0.753328 -0.728741 -0.441174 -0.514889 -0.434592 -0.50712 -0.514889 -0.577525 -0.50712 -0.568848 -0.434592 -0.50712 -0.4281 -0.499479 -0.50712 -0.568848 -0.499479 -0.559952 -0.709098 -0.652394 -0.698826 -0.642562 -0.740101 -0.698826 -0.728741 -0.688364 -0.698826 -0.642562 -0.688364 -0.632886 0.459342 0.413943 0.451781 0.407439 0.451781 0.407439 0.445019 0.40104 -0.633866 -0.627033 -0.624195 -0.617464 -0.627033 -0.606633 -0.617464 -0.597437 -0.624195 -0.617464 -0.614699 -0.608082 -0.617464 -0.597437 -0.608082 -0.588381 -0.586405 -0.637412 -0.577525 -0.627633 -0.577525 -0.627633 -0.568848 -0.618274 0.479224 0.445019 0.471653 0.437987 0.445019 0.40104 0.437987 0.394787 0.471653 0.437987 0.464249 0.431112 0.437987 0.394787 0.431112 0.388593 -0.606633 -0.573232 -0.597437 -0.564538 -0.573232 -0.52735 -0.564538 -0.519522 -0.597437 -0.564538 -0.588381 -0.556026 -0.564538 -0.519522 -0.556026 -0.511729 0.464249 0.431112 0.456977 0.42436 0.431112 0.388593 0.42436 0.382507 0.456977 0.42436 0.449831 0.417732 0.42436 0.382507 0.417732 0.37653 -0.614699 -0.608082 -0.605363 -0.598854 -0.608082 -0.588381 -0.598854 -0.579483 -0.605363 -0.598854 -0.596173 -0.589765 -0.598854 -0.579483 -0.589765 -0.570698 -0.590686 -0.625051 -0.581735 -0.615559 -0.588381 -0.556026 -0.579483 -0.547645 -0.556026 -0.511729 -0.547645 -0.504031 -0.579483 -0.547645 -0.570698 -0.53947 -0.547645 -0.504031 -0.53947 -0.496449 0.517884 0.553202 0.509302 0.544426 0.509302 0.544426 0.501574 0.535891 0.544426 0.567698 0.535891 0.558646 0.401096 0.4565 0.39474 0.449056 0.4565 0.501574 0.449056 0.493621 0.39474 0.449056 0.388235 0.441887 0.449056 0.493621 0.441887 0.485779 0.501574 0.535891 0.493621 0.527377 0.535891 0.558646 0.527377 0.549906 0.493621 0.527377 0.485779 0.519037 0.449844 0.472092 0.442815 0.464786 0.442815 0.464786 0.43585 0.45764 0.464786 0.476641 0.45764 0.46927 -0.52735 -0.470381 -0.519522 -0.463356 -0.470381 -0.403271 -0.463356 -0.397272 -0.519522 -0.463356 -0.511729 -0.456449 -0.463356 -0.397272 -0.456449 -0.391361 -0.511729 -0.456449 -0.504031 -0.449664 -0.456449 -0.391361 -0.449664 -0.385609 -0.504031 -0.449664 -0.496449 -0.442714 0.476633 0.457134 0.46915 0.44993 0.457134 0.427561 0.44993 0.420865 0.46915 0.44993 0.461842 0.442929 0.44993 0.420865 0.442929 0.41425 -0.496449 -0.442714 -0.488778 -0.436232 0 0.114997 0 0.113188 0.114997 0.227505 0.113188 0.223926 0 0.113188 0 0.111406 0.113188 0.223926 0.111406 0.220402 0.485209 0.538243 0.477545 0.529793 0.538243 0.579695 0.529793 0.570551 0.477545 0.529793 0.470053 0.521416 0.529793 0.570551 0.521416 0.561552 0.470053 0.521416 0.46241 0.513177 0.521416 0.561552 0.513177 0.552695 0.46241 0.513177 0.4552 0.505001 0.513177 0.552695 0.505001 0.544064 0.567698 0.578357 0.558646 0.569235 0.578357 0.576473 0.569235 0.567363 0.576473 0.562068 0.567363 0.553145 0.562068 0.535519 0.553145 0.526984 0.558646 0.569235 0.549906 0.560252 0.569235 0.567363 0.560252 0.558488 0.567363 0.553145 0.558488 0.544324 0.553145 0.526984 0.544324 0.5183 0.544324 0.5183 0.535751 0.510511 0.579695 0.608557 0.570551 0.598944 0.608557 0.62419 0.598944 0.614331 0.570551 0.598944 0.561552 0.589495 0.598944 0.614331 0.589495 0.604636 0.62419 0.626255 0.614331 0.616386 0.626255 0.614826 0.616386 0.605067 0.614331 0.616386 0.604636 0.606639 0.616386 0.605067 0.606639 0.595459 0.505014 0.455211 0.497097 0.448074 0.535519 0.497097 0.526984 0.489509 0.497097 0.448074 0.489509 0.441077 0.561552 0.589495 0.552695 0.580209 0.589495 0.604636 0.580209 0.595095 0.552695 0.580209 0.544064 0.571067 0.580209 0.595095 0.571067 0.585708 0.604636 0.606639 0.595095 0.597057 0.606639 0.595459 0.597057 0.586014 0.595095 0.597057 0.585708 0.587627 0.597057 0.586014 0.587627 0.576812 0.614826 0.590093 0.605067 0.580582 0.590093 0.552302 0.580582 0.543426 0.605067 0.580582 0.595459 0.571326 0.580582 0.543426 0.571326 0.534755 0.552302 0.502382 0.543426 0.494425 0.502382 0.441867 0.494425 0.434577 0.543426 0.494425 0.534755 0.486514 0.494425 0.434577 0.486514 0.42769 0.595459 0.571326 0.586014 0.56224 0.571326 0.534755 0.56224 0.526248 0.586014 0.56224 0.576812 0.553188 0.56224 0.526248 0.553188 0.517869 -0.599403 -0.513202 -0.590322 -0.50546 -0.590322 -0.50546 -0.581396 -0.497838 0.534755 0.486514 0.526248 0.478798 0.486514 0.42769 0.478798 0.420802 0.526248 0.478798 0.517869 0.471349 0.478798 0.420802 0.471349 0.414259 -0.581396 -0.497838 -0.572599 -0.490318 -0.572599 -0.490318 -0.56379 -0.482949 0.572024 0.649767 0.562921 0.639465 0.649767 0.713443 0.639465 0.702156 0.562921 0.639465 0.55396 0.629328 0.639465 0.702156 0.629328 0.691055 -0.56379 -0.482949 -0.5555 -0.475692 -0.623193 -0.5555 -0.613602 -0.547017 -0.5555 -0.475692 -0.547017 -0.468567 0.713443 0.761676 0.702156 0.749634 0.702156 0.749634 0.691055 0.737792 -0.613602 -0.547017 -0.604296 -0.538733 -0.547017 -0.468567 -0.538733 -0.461536 -0.604296 -0.538733 -0.595066 -0.530664 -0.538733 -0.461536 -0.530664 -0.454644 0.55396 0.629328 0.545116 0.619372 0.629328 0.691055 0.619372 0.680164 0.545116 0.619372 0.536369 0.609666 0.619372 0.680164 0.609666 0.669537 -0.637396 -0.586436 -0.627545 -0.577534 -0.627545 -0.577534 -0.617982 -0.56847 -0.617982 -0.56847 -0.608577 -0.559955 -0.595066 -0.530664 -0.586436 -0.522758 -0.530664 -0.454644 -0.522758 -0.447895 -0.586436 -0.522758 -0.577534 -0.515136 -0.522758 -0.447895 -0.515136 -0.441271 0.691055 0.737792 0.680164 0.726146 0.680164 0.726146 0.669537 0.714738 0.760432 0.724167 0.748264 0.712927 0.748264 0.712927 0.736435 0.701597 -0.608577 -0.559955 -0.599334 -0.551505 -0.599334 -0.551505 -0.590691 -0.543578 -0.625117 -0.590691 -0.61556 -0.58195 -0.590691 -0.543578 -0.58195 -0.535389 0.206829 0.104545 0.203559 0.102892 0.104545 2.62286e-16 0.102892 2.58219e-16 0.203559 0.102892 0.200335 0.101263 0.102892 2.58219e-16 0.101263 2.54216e-16 -0.543578 -0.484966 -0.535389 -0.477543 -0.484966 -0.41559 -0.477543 -0.409375 -0.535389 -0.477543 -0.52735 -0.470381 -0.477543 -0.409375 -0.470381 -0.403271 0.580632 0.637767 0.571301 0.627517 0.571301 0.627517 0.562203 0.617534 0.562203 0.617534 0.553171 0.607692 0.553171 0.607692 0.544246 0.597942 0.544246 0.597942 0.535877 0.588787 0.47154 0.535877 0.463826 0.527354 0.535877 0.588787 0.527354 0.579398 0.463826 0.527354 0.456359 0.51892 0.527354 0.579398 0.51892 0.570164 0.588787 0.628962 0.579398 0.618828 0.579398 0.618828 0.570164 0.608993 0.456359 0.51892 0.449042 0.510562 0.51892 0.570164 0.510562 0.561222 0.449042 0.510562 0.441882 0.502396 0.570164 0.608993 0.561222 0.599314 0.758515 0.755745 0.746525 0.744111 0.736435 0.701597 0.725238 0.69055 0.744111 0.725238 0.731878 0.713857 0.725238 0.69055 0.713857 0.679648 0.693872 0.625338 0.682882 0.61548 0.682882 0.61548 0.672066 0.605836 0.472144 0.449831 0.464783 0.44278 0.476631 0.464783 0.469244 0.457632 0.464783 0.44278 0.457632 0.435851 0.625338 0.543267 0.61548 0.534727 0.543267 0.449437 0.534727 0.442373 0.61548 0.534727 0.605836 0.526327 0.534727 0.442373 0.526327 0.435422 0.672066 0.605836 0.6619 0.596344 0.712927 0.6619 0.701597 0.651362 0.6619 0.596344 0.651362 0.58699 0.605836 0.526327 0.596344 0.518064 0.526327 0.435422 0.518064 0.428578 0.596344 0.518064 0.58699 0.509916 0.518064 0.428578 0.509916 0.421835 0.701597 0.651362 0.69055 0.641057 0.651362 0.58699 0.641057 0.577711 0.69055 0.641057 0.679648 0.630866 0.641057 0.577711 0.630866 0.568568 0.58699 0.509916 0.577711 0.501879 0.509916 0.421835 0.5