# vtk DataFile Version 3.0
#This file was generated by the deal.II library on 2018/12/4 at 0:47:15
ASCII
DATASET UNSTRUCTURED_GRID

POINTS 5260 double
0 0.1875 0
0.0625 0.1875 0
0 0.25 0
0.0625 0.25 0
0.9375 0.1875 0
1 0.1875 0
0.9375 0.25 0
1 0.25 0
0 0.25 0
0.0625 0.25 0
0 0.3125 0
0.0625 0.3125 0
0.3125 0.1875 0
0.375 0.1875 0
0.3125 0.25 0
0.375 0.25 0
0.9375 0.25 0
1 0.25 0
0.9375 0.3125 0
1 0.3125 0
0.3125 0.25 0
0.375 0.25 0
0.3125 0.3125 0
0.375 0.3125 0
0.3125 0.3125 0
0.375 0.3125 0
0.3125 0.375 0
0.375 0.375 0
0.625 0.3125 0
0.6875 0.3125 0
0.625 0.375 0
0.6875 0.375 0
0.3125 0.375 0
0.375 0.375 0
0.3125 0.4375 0
0.375 0.4375 0
0.25 0.4375 0
0.3125 0.4375 0
0.25 0.5 0
0.3125 0.5 0
0.3125 0.4375 0
0.375 0.4375 0
0.3125 0.5 0
0.375 0.5 0
0.3125 0.5 0
0.375 0.5 0
0.3125 0.5625 0
0.375 0.5625 0
0.25 0.5625 0
0.3125 0.5625 0
0.25 0.625 0
0.3125 0.625 0
0.3125 0.5625 0
0.375 0.5625 0
0.3125 0.625 0
0.375 0.625 0
0.375 0.625 0
0.4375 0.625 0
0.375 0.6875 0
0.4375 0.6875 0
0.375 0.6875 0
0.4375 0.6875 0
0.375 0.75 0
0.4375 0.75 0
0 0.75 0
0.0625 0.75 0
0 0.8125 0
0.0625 0.8125 0
0.0625 0.75 0
0.125 0.75 0
0.0625 0.8125 0
0.125 0.8125 0
0 0.8125 0
0.0625 0.8125 0
0 0.875 0
0.0625 0.875 0
0.0625 0.8125 0
0.125 0.8125 0
0.0625 0.875 0
0.125 0.875 0
0.625 0.375 0
0.6875 0.375 0
0.625 0.4375 0
0.6875 0.4375 0
0.625 0.4375 0
0.6875 0.4375 0
0.625 0.5 0
0.6875 0.5 0
0.6875 0.4375 0
0.75 0.4375 0
0.6875 0.5 0
0.75 0.5 0
0 0.375 0
0.0625 0.375 0
0 0.4375 0
0.0625 0.4375 0
0.625 0.5 0
0.6875 0.5 0
0.625 0.5625 0
0.6875 0.5625 0
0.625 0.5625 0
0.6875 0.5625 0
0.625 0.625 0
0.6875 0.625 0
0.6875 0.5625 0
0.75 0.5625 0
0.6875 0.625 0
0.75 0.625 0
0.5625 0.625 0
0.625 0.625 0
0.5625 0.6875 0
0.625 0.6875 0
0.5625 0.6875 0
0.625 0.6875 0
0.5625 0.75 0
0.625 0.75 0
0.875 0.75 0
0.9375 0.75 0
0.875 0.8125 0
0.9375 0.8125 0
0.9375 0.75 0
1 0.75 0
0.9375 0.8125 0
1 0.8125 0
0.875 0.8125 0
0.9375 0.8125 0
0.875 0.875 0
0.9375 0.875 0
0.9375 0.8125 0
1 0.8125 0
0.9375 0.875 0
1 0.875 0
0.9375 0.375 0
1 0.375 0
0.9375 0.4375 0
1 0.4375 0
0 0.5 0
0.0625 0.5 0
0 0.5625 0
0.0625 0.5625 0
0.0625 0.5 0
0.125 0.5 0
0.0625 0.5625 0
0.125 0.5625 0
0.0625 0.5625 0
0.125 0.5625 0
0.0625 0.625 0
0.125 0.625 0
0.1875 0.5625 0
0.25 0.5625 0
0.1875 0.625 0
0.25 0.625 0
0.1875 0.625 0
0.25 0.625 0
0.1875 0.6875 0
0.25 0.6875 0
0.1875 0.6875 0
0.25 0.6875 0
0.1875 0.75 0
0.25 0.75 0
0.25 0.75 0
0.3125 0.75 0
0.25 0.8125 0
0.3125 0.8125 0
0.3125 0.75 0
0.375 0.75 0
0.3125 0.8125 0
0.375 0.8125 0
0.25 0.8125 0
0.3125 0.8125 0
0.25 0.875 0
0.3125 0.875 0
0.3125 0.8125 0
0.375 0.8125 0
0.3125 0.875 0
0.375 0.875 0
0.375 0.75 0
0.4375 0.75 0
0.375 0.8125 0
0.4375 0.8125 0
0.4375 0.75 0
0.5 0.75 0
0.4375 0.8125 0
0.5 0.8125 0
0.375 0.8125 0
0.4375 0.8125 0
0.375 0.875 0
0.4375 0.875 0
0.4375 0.8125 0
0.5 0.8125 0
0.4375 0.875 0
0.5 0.875 0
0.25 0.875 0
0.3125 0.875 0
0.25 0.9375 0
0.3125 0.9375 0
0.3125 0.875 0
0.375 0.875 0
0.3125 0.9375 0
0.375 0.9375 0
0.25 0.9375 0
0.3125 0.9375 0
0.25 1 0
0.3125 1 0
0.3125 0.9375 0
0.375 0.9375 0
0.3125 1 0
0.375 1 0
0.375 0.875 0
0.4375 0.875 0
0.375 0.9375 0
0.4375 0.9375 0
0.4375 0.875 0
0.5 0.875 0
0.4375 0.9375 0
0.5 0.9375 0
0.375 0.9375 0
0.4375 0.9375 0
0.375 1 0
0.4375 1 0
0.4375 0.9375 0
0.5 0.9375 0
0.4375 1 0
0.5 1 0
0.75 0.5625 0
0.8125 0.5625 0
0.75 0.625 0
0.8125 0.625 0
0.875 0.5 0
0.9375 0.5 0
0.875 0.5625 0
0.9375 0.5625 0
0.9375 0.5 0
1 0.5 0
0.9375 0.5625 0
1 0.5625 0
0.75 0.625 0
0.8125 0.625 0
0.75 0.6875 0
0.8125 0.6875 0
0.75 0.6875 0
0.8125 0.6875 0
0.75 0.75 0
0.8125 0.75 0
0.5 0.75 0
0.5625 0.75 0
0.5 0.8125 0
0.5625 0.8125 0
0.5625 0.75 0
0.625 0.75 0
0.5625 0.8125 0
0.625 0.8125 0
0.5 0.8125 0
0.5625 0.8125 0
0.5 0.875 0
0.5625 0.875 0
0.5625 0.8125 0
0.625 0.8125 0
0.5625 0.875 0
0.625 0.875 0
0.625 0.75 0
0.6875 0.75 0
0.625 0.8125 0
0.6875 0.8125 0
0.6875 0.75 0
0.75 0.75 0
0.6875 0.8125 0
0.75 0.8125 0
0.625 0.8125 0
0.6875 0.8125 0
0.625 0.875 0
0.6875 0.875 0
0.6875 0.8125 0
0.75 0.8125 0
0.6875 0.875 0
0.75 0.875 0
0.5 0.875 0
0.5625 0.875 0
0.5 0.9375 0
0.5625 0.9375 0
0.5625 0.875 0
0.625 0.875 0
0.5625 0.9375 0
0.625 0.9375 0
0.5 0.9375 0
0.5625 0.9375 0
0.5 1 0
0.5625 1 0
0.625 0.875 0
0.6875 0.875 0
0.625 0.9375 0
0.6875 0.9375 0
0.625 0.9375 0
0.6875 0.9375 0
0.625 1 0
0.6875 1 0
0.3125 0.625 0
0.375 0.625 0
0.3125 0.6875 0
0.375 0.6875 0
0.3125 0.6875 0
0.375 0.6875 0
0.3125 0.75 0
0.375 0.75 0
0.625 0.625 0
0.6875 0.625 0
0.625 0.6875 0
0.6875 0.6875 0
0.625 0.6875 0
0.6875 0.6875 0
0.625 0.75 0
0.6875 0.75 0
0 0.125 0
0.03125 0.125 0
0 0.15625 0
0.03125 0.15625 0
0.03125 0.125 0
0.0625 0.125 0
0.03125 0.15625 0
0.0625 0.15625 0
0 0.15625 0
0.03125 0.15625 0
0 0.1875 0
0.03125 0.1875 0
0.03125 0.15625 0
0.0625 0.15625 0
0.03125 0.1875 0
0.0625 0.1875 0
0.125 0 0
0.15625 0 0
0.125 0.03125 0
0.15625 0.03125 0
0.15625 0 0
0.1875 0 0
0.15625 0.03125 0
0.1875 0.03125 0
0.15625 0.03125 0
0.1875 0.03125 0
0.15625 0.0625 0
0.1875 0.0625 0
0.125 0.09375 0
0.15625 0.09375 0
0.125 0.125 0
0.15625 0.125 0
0.0625 0.15625 0
0.09375 0.15625 0
0.0625 0.1875 0
0.09375 0.1875 0
0.3125 0 0
0.34375 0 0
0.3125 0.03125 0
0.34375 0.03125 0
0.34375 0 0
0.375 0 0
0.34375 0.03125 0
0.375 0.03125 0
0.3125 0.03125 0
0.34375 0.03125 0
0.3125 0.0625 0
0.34375 0.0625 0
0.34375 0.03125 0
0.375 0.03125 0
0.34375 0.0625 0
0.375 0.0625 0
0.125 0.125 0
0.15625 0.125 0
0.125 0.15625 0
0.15625 0.15625 0
0.125 0.15625 0
0.15625 0.15625 0
0.125 0.1875 0
0.15625 0.1875 0
0.0625 0.1875 0
0.09375 0.1875 0
0.0625 0.21875 0
0.09375 0.21875 0
0.0625 0.21875 0
0.09375 0.21875 0
0.0625 0.25 0
0.09375 0.25 0
0.125 0.1875 0
0.15625 0.1875 0
0.125 0.21875 0
0.15625 0.21875 0
0.28125 0 0
0.3125 0 0
0.28125 0.03125 0
0.3125 0.03125 0
0.28125 0.03125 0
0.3125 0.03125 0
0.28125 0.0625 0
0.3125 0.0625 0
0.28125 0.0625 0
0.3125 0.0625 0
0.28125 0.09375 0
0.3125 0.09375 0
0.28125 0.09375 0
0.3125 0.09375 0
0.28125 0.125 0
0.3125 0.125 0
0.46875 0 0
0.5 0 0
0.46875 0.03125 0
0.5 0.03125 0
0.375 0.25 0
0.40625 0.25 0
0.375 0.28125 0
0.40625 0.28125 0
0.375 0.28125 0
0.40625 0.28125 0
0.375 0.3125 0
0.40625 0.3125 0
0.375 0.3125 0
0.40625 0.3125 0
0.375 0.34375 0
0.40625 0.34375 0
0.375 0.34375 0
0.40625 0.34375 0
0.375 0.375 0
0.40625 0.375 0
0 0 0
0.03125 0 0
0 0.03125 0
0.03125 0.03125 0
0.03125 0 0
0.0625 0 0
0.03125 0.03125 0
0.0625 0.03125 0
0 0.03125 0
0.03125 0.03125 0
0 0.0625 0
0.03125 0.0625 0
0.03125 0.03125 0
0.0625 0.03125 0
0.03125 0.0625 0
0.0625 0.0625 0
0 0.0625 0
0.03125 0.0625 0
0 0.09375 0
0.03125 0.09375 0
0.03125 0.0625 0
0.0625 0.0625 0
0.03125 0.09375 0
0.0625 0.09375 0
0 0.09375 0
0.03125 0.09375 0
0 0.125 0
0.03125 0.125 0
0.03125 0.09375 0
0.0625 0.09375 0
0.03125 0.125 0
0.0625 0.125 0
0.6875 0 0
0.71875 0 0
0.6875 0.03125 0
0.71875 0.03125 0
0.6875 0.03125 0
0.71875 0.03125 0
0.6875 0.0625 0
0.71875 0.0625 0
0.6875 0.0625 0
0.71875 0.0625 0
0.6875 0.09375 0
0.71875 0.09375 0
0.6875 0.09375 0
0.71875 0.09375 0
0.6875 0.125 0
0.71875 0.125 0
0.90625 0.15625 0
0.9375 0.15625 0
0.90625 0.1875 0
0.9375 0.1875 0
0.9375 0.125 0
0.96875 0.125 0
0.9375 0.15625 0
0.96875 0.15625 0
0.96875 0.125 0
1 0.125 0
0.96875 0.15625 0
1 0.15625 0
0.9375 0.15625 0
0.96875 0.15625 0
0.9375 0.1875 0
0.96875 0.1875 0
0.96875 0.15625 0
1 0.15625 0
0.96875 0.1875 0
1 0.1875 0
0.90625 0.1875 0
0.9375 0.1875 0
0.90625 0.21875 0
0.9375 0.21875 0
0.90625 0.21875 0
0.9375 0.21875 0
0.90625 0.25 0
0.9375 0.25 0
0.3125 0.0625 0
0.34375 0.0625 0
0.3125 0.09375 0
0.34375 0.09375 0
0.34375 0.0625 0
0.375 0.0625 0
0.34375 0.09375 0
0.375 0.09375 0
0.3125 0.09375 0
0.34375 0.09375 0
0.3125 0.125 0
0.34375 0.125 0
0.34375 0.09375 0
0.375 0.09375 0
0.34375 0.125 0
0.375 0.125 0
0.5 0 0
0.53125 0 0
0.5 0.03125 0
0.53125 0.03125 0
0.59375 0.25 0
0.625 0.25 0
0.59375 0.28125 0
0.625 0.28125 0
0.59375 0.28125 0
0.625 0.28125 0
0.59375 0.3125 0
0.625 0.3125 0
0.59375 0.3125 0
0.625 0.3125 0
0.59375 0.34375 0
0.625 0.34375 0
0.59375 0.34375 0
0.625 0.34375 0
0.59375 0.375 0
0.625 0.375 0
0.4375 0.3125 0
0.46875 0.3125 0
0.4375 0.34375 0
0.46875 0.34375 0
0.46875 0.3125 0
0.5 0.3125 0
0.46875 0.34375 0
0.5 0.34375 0
0.4375 0.34375 0
0.46875 0.34375 0
0.4375 0.375 0
0.46875 0.375 0
0.46875 0.34375 0
0.5 0.34375 0
0.46875 0.375 0
0.5 0.375 0
0.0625 0.25 0
0.09375 0.25 0
0.0625 0.28125 0
0.09375 0.28125 0
0.0625 0.28125 0
0.09375 0.28125 0
0.0625 0.3125 0
0.09375 0.3125 0
0.8125 0 0
0.84375 0 0
0.8125 0.03125 0
0.84375 0.03125 0
0.84375 0 0
0.875 0 0
0.84375 0.03125 0
0.875 0.03125 0
0.8125 0.03125 0
0.84375 0.03125 0
0.8125 0.0625 0
0.84375 0.0625 0
0.28125 0.125 0
0.3125 0.125 0
0.28125 0.15625 0
0.3125 0.15625 0
0.28125 0.15625 0
0.3125 0.15625 0
0.28125 0.1875 0
0.3125 0.1875 0
0.84375 0.09375 0
0.875 0.09375 0
0.84375 0.125 0
0.875 0.125 0
0.28125 0.1875 0
0.3125 0.1875 0
0.28125 0.21875 0
0.3125 0.21875 0
0.28125 0.21875 0
0.3125 0.21875 0
0.28125 0.25 0
0.3125 0.25 0
0.84375 0.125 0
0.875 0.125 0
0.84375 0.15625 0
0.875 0.15625 0
0.84375 0.15625 0
0.875 0.15625 0
0.84375 0.1875 0
0.875 0.1875 0
0.1875 0.0625 0
0.21875 0.0625 0
0.1875 0.09375 0
0.21875 0.09375 0
0.21875 0.0625 0
0.25 0.0625 0
0.21875 0.09375 0
0.25 0.09375 0
0.1875 0.09375 0
0.21875 0.09375 0
0.1875 0.125 0
0.21875 0.125 0
0.21875 0.09375 0
0.25 0.09375 0
0.21875 0.125 0
0.25 0.125 0
0.84375 0.1875 0
0.875 0.1875 0
0.84375 0.21875 0
0.875 0.21875 0
0.375 0.1875 0
0.40625 0.1875 0
0.375 0.21875 0
0.40625 0.21875 0
0.375 0.21875 0
0.40625 0.21875 0
0.375 0.25 0
0.40625 0.25 0
0.90625 0.25 0
0.9375 0.25 0
0.90625 0.28125 0
0.9375 0.28125 0
0.90625 0.28125 0
0.9375 0.28125 0
0.90625 0.3125 0
0.9375 0.3125 0
0.625 0 0
0.65625 0 0
0.625 0.03125 0
0.65625 0.03125 0
0.65625 0 0
0.6875 0 0
0.65625 0.03125 0
0.6875 0.03125 0
0.625 0.03125 0
0.65625 0.03125 0
0.625 0.0625 0
0.65625 0.0625 0
0.65625 0.03125 0
0.6875 0.03125 0
0.65625 0.0625 0
0.6875 0.0625 0
0.28125 0.25 0
0.3125 0.25 0
0.28125 0.28125 0
0.3125 0.28125 0
0.25 0.28125 0
0.28125 0.28125 0
0.25 0.3125 0
0.28125 0.3125 0
[...]
POINT_DATA 5260
SCALARS U double 1
LOOKUP_TABLE default
0 0.398739 0 0.371763 0.398749 2.65851e-16 0.371774 2.49744e-16 0 0.371763 0 0.348814 0.133809 -0.280639 0.123542 -0.264781 0.371774 2.49744e-16 0.348829 2.34612e-16 0.123542 -0.264781 0.113978 -0.25054 0.113978 -0.25054 0.104414 -0.236857 -0.250555 0.113869 -0.236754 0.104473 0.104414 -0.236857 0.0987042 -0.223875 0.384428 0.0987042 0.359308 0.0909937 0.0987042 -0.223875 0.0909937 -0.210948 0.0909937 -0.210948 0.0846356 -0.197869 0.339983 0.0846356 0.317125 0.0799431 0.0846356 -0.197869 0.0799431 -0.188644 -0.188644 -0.395783 -0.176739 -0.369304 -0.176739 -0.369304 -0.165613 -0.349605 0 0.224807 0 0.210692 0.224807 0.371869 0.210692 0.348923 0 0.210692 0 0.199866 0.210692 0.348923 0.199866 0.330193 -0.236754 0.104473 -0.22382 0.0987423 -0.22382 0.0987423 -0.210936 0.0909827 0.0987423 0.384457 0.0909827 0.359275 0 0.326641 0 0.305329 -0.210936 0.0909827 -0.197892 0.0845746 -0.197892 0.0845746 -0.188691 0.0798486 0.0845746 0.339825 0.0798486 0.316922 -0.395802 -0.188691 -0.369332 -0.176797 -0.369332 -0.176797 -0.349641 -0.165667 0.372025 0.224971 0.348962 0.210729 0.224971 1.51477e-16 0.210729 1.423e-16 0.348962 0.210729 0.330181 0.19987 0.210729 1.423e-16 0.19987 1.33678e-16 0.32667 2.20398e-16 0.305427 2.07045e-16 0 0.289539 0 0.270826 0.289539 0.478927 0.270826 0.448368 0.270826 0.448368 0.253666 0.421802 0.475813 0.339983 0.444079 0.317125 0.444079 0.317125 0.415997 0.295163 0.415997 0.295163 0.392956 0.280398 0.280398 0.070411 0.261539 0.0667425 0.070411 -0.165613 0.0667425 -0.154677 0.261539 0.0667425 0.248735 0.0642863 0.0667425 -0.154677 0.0642863 -0.14378 -0.165613 -0.349605 -0.154677 -0.327119 -0.349605 -0.421109 -0.327119 -0.391885 -0.154677 -0.327119 -0.14378 -0.305652 -0.327119 -0.391885 -0.305652 -0.366621 0.248735 0.0642863 0.237046 0.063158 0.0642863 -0.14378 0.063158 -0.133132 0.237046 0.063158 0.227053 0.0626437 0.063158 -0.133132 0.0626437 -0.12288 -0.14378 -0.305652 -0.133132 -0.285694 -0.305652 -0.366621 -0.285694 -0.343133 -0.133132 -0.285694 -0.12288 -0.266986 -0.285694 -0.343133 -0.266986 -0.321101 0.339825 0.475464 0.316922 0.443415 0.479198 0.28992 0.449672 0.272163 0.28992 1.94501e-16 0.272163 1.82716e-16 0.316922 0.443415 0.295 0.415889 0.295 0.415889 0.28035 0.392991 -0.421109 -0.349641 -0.391885 -0.327214 -0.349641 -0.165667 -0.327214 -0.154753 -0.391885 -0.327214 -0.366621 -0.305963 -0.327214 -0.154753 -0.305963 -0.144173 -0.165667 0.0703475 -0.154753 0.0667873 0.0703475 0.28035 0.0667873 0.261597 -0.154753 0.0667873 -0.144173 0.0645317 0.0667873 0.261597 0.0645317 0.249556 -0.366621 -0.305963 -0.343133 -0.286717 -0.305963 -0.144173 -0.286717 -0.134247 -0.343133 -0.286717 -0.321101 -0.266986 -0.144173 0.0645317 -0.134247 0.0621847 -0.134247 0.0621847 -0.12288 0.0626437 0.0799431 -0.188644 0.0724052 -0.176739 0.0724052 -0.176739 0.070411 -0.165613 -0.188691 0.0798486 -0.176797 0.0723077 -0.176797 0.0723077 -0.165667 0.0703475 0 0.221443 0 0.213522 0.221443 0.423593 0.213522 0.410066 0 0.213522 0 0.199369 0.213522 0.410066 0.199369 0.398739 0.806401 0.86864 0.780891 0.84066 0.86864 0.856071 0.84066 0.827052 0.84066 0.827052 0.812003 0.801561 0.730089 0.785911 0.705571 0.759731 0.410066 0.572121 0.398739 0.553082 0.170283 -0.0855535 0.16392 -0.0836385 -0.0855535 -0.334022 -0.0836385 -0.324054 0.16392 -0.0836385 0.157738 -0.0818384 -0.0836385 -0.324054 -0.0818384 -0.314494 0.705571 0.759731 0.682639 0.734804 0.682639 0.734804 0.660529 0.71081 0.398739 0.553082 0.385251 0.53493 0.385251 0.53493 0.371763 0.517045 0.660529 0.71081 0.639421 0.688009 0.411455 0.170283 0.397223 0.16392 0.397223 0.16392 0.383661 0.157738 0.383661 0.157738 0.370437 0.151717 0.370437 0.151717 0.357456 0.145838 -0.835258 -0.872843 -0.808902 -0.846047 -0.264781 -0.433848 -0.257661 -0.4211 -0.257661 -0.4211 -0.25054 -0.409177 -0.25054 -0.409177 -0.243699 -0.397491 -0.243699 -0.397491 -0.236857 -0.385475 0 0.253373 0 0.245039 0.253373 0.484925 0.245039 0.468947 0 0.245039 0 0.236956 0.245039 0.468947 0.236956 0.453469 0 0.236956 0 0.229078 0.236956 0.453469 0.229078 0.438486 0 0.229078 0 0.221443 0.229078 0.438486 0.221443 0.423593 0.170283 0.411455 0.163948 0.397247 0.163948 0.397247 0.157789 0.383705 0.157789 0.383705 0.151776 0.370497 0.151776 0.370497 0.145881 0.357522 0.572137 0.410075 0.5531 0.398749 0.423601 0.221447 0.410075 0.213527 0.221447 2.82997e-16 0.213527 2.7429e-16 0.410075 0.213527 0.398749 0.199374 0.213527 2.7429e-16 0.199374 2.65851e-16 0.5531 0.398749 0.534949 0.385261 0.534949 0.385261 0.517065 0.371774 0.157738 -0.0818384 0.151717 -0.0801628 -0.0818384 -0.314494 -0.0801628 -0.30534 0.151717 -0.0801628 0.145838 -0.0785691 -0.0801628 -0.30534 -0.0785691 -0.296568 -0.872843 -0.835258 -0.846047 -0.808883 -0.433916 -0.264374 -0.420288 -0.256849 -0.420288 -0.256849 -0.408819 -0.250555 -0.408819 -0.250555 -0.397332 -0.243655 -0.397332 -0.243655 -0.385364 -0.236754 -0.533967 -0.613608 -0.518185 -0.595235 -0.613608 -0.640683 -0.595235 -0.621687 -0.518185 -0.595235 -0.502861 -0.577946 -0.595235 -0.621687 -0.577946 -0.603499 0.371763 0.517045 0.360289 0.499789 0.360289 0.499789 0.348814 0.484687 0.856071 0.86864 0.827064 0.840668 0.86864 0.806401 0.840668 0.780897 0.827064 0.840668 0.801585 0.81202 0.357456 0.145838 0.344791 0.140247 0.344791 0.140247 0.332603 0.133809 0.785937 0.730106 0.759767 0.705594 0.332603 0.133809 0.32081 0.128676 0.32081 0.128676 0.30919 0.123542 0.759767 0.705594 0.734848 0.682667 0.734848 0.682667 0.71086 0.66056 0.801561 0.72125 0.773253 0.695803 0.72125 0.577262 0.695803 0.557248 0.773253 0.695803 0.748197 0.672125 0.695803 0.557248 0.672125 0.538085 0.71086 0.66056 0.688063 0.639454 -0.280639 -0.461318 -0.27271 -0.446733 -0.27271 -0.446733 -0.264781 -0.433848 0.517065 0.371774 0.49981 0.360301 0.49981 0.360301 0.48471 0.348829 -0.334022 -0.0855535 -0.324016 -0.0836045 -0.0855535 0.170283 -0.0836045 0.163948 -0.324016 -0.0836045 -0.314418 -0.0817755 -0.0836045 0.163948 -0.0817755 0.157789 0.30919 0.123542 0.299207 0.11876 0.452436 0.299207 0.438472 0.288899 0.299207 0.11876 0.288899 0.113978 0.288899 0.113978 0.277858 0.109196 0.277858 0.109196 0.269061 0.104414 0.145881 0.357522 0.140129 0.344979 0.140129 0.344979 0.134564 0.332893 0.134564 0.332893 0.129177 0.321211 0.129177 0.321211 0.124117 0.309573 0.484925 0.253373 0.468949 0.24504 0.253373 3.20677e-16 0.24504 3.10811e-16 0.468949 0.24504 0.453474 0.236958 0.24504 3.10811e-16 0.236958 3.01248e-16 0.453474 0.236958 0.438492 0.229081 0.236958 3.01248e-16 0.229081 2.9198e-16 0.438492 0.229081 0.423601 0.221447 0.229081 2.9198e-16 0.221447 2.82997e-16 0.124117 0.309573 0.119392 0.299479 0.119392 0.299479 0.113869 0.28905 0.299479 0.452622 0.28905 0.438597 0.113869 0.28905 0.109171 0.277903 0.109171 0.277903 0.104473 0.269105 0.409292 0.269061 0.394563 0.258997 0.269061 0.104414 0.258997 0.101559 0.394563 0.258997 0.384428 0.241566 0.258997 0.101559 0.241566 0.0987042 -0.314418 -0.0817755 -0.305234 -0.080086 -0.0817755 0.157789 -0.080086 0.151776 -0.305234 -0.080086 -0.296445 -0.0785315 -0.080086 0.151776 -0.0785315 0.145881 -0.640683 -0.613449 -0.621687 -0.595127 -0.613449 -0.533653 -0.595127 -0.518005 -0.621687 -0.595127 -0.603499 -0.577879 -0.595127 -0.518005 -0.577879 -0.502752 -0.210948 -0.342743 -0.204409 -0.331242 -0.204409 -0.331242 -0.197869 -0.322071 -0.197869 -0.322071 -0.193257 -0.31141 -0.322071 -0.418824 -0.31141 -0.404973 -0.193257 -0.31141 -0.188644 -0.292214 -0.31141 -0.404973 -0.292214 -0.395783 -0.418824 -0.480179 -0.404973 -0.465873 -0.404973 -0.465873 -0.395783 -0.452032 -0.465873 -0.487137 -0.452032 -0.471749 -0.236857 -0.385475 -0.230366 -0.374965 -0.230366 -0.374965 -0.223875 -0.363823 -0.374965 -0.48725 -0.363823 -0.473496 -0.223875 -0.363823 -0.217411 -0.353164 -0.363823 -0.473496 -0.353164 -0.459313 -0.217411 -0.353164 -0.210948 -0.342743 -0.353164 -0.459313 -0.342743 -0.445698 -0.473496 -0.54313 -0.459313 -0.526165 -0.459313 -0.526165 -0.445698 -0.511346 0.748197 0.672125 0.723472 0.649654 0.672125 0.538085 0.649654 0.519711 0.723472 0.649654 0.699621 0.627984 0.649654 0.519711 0.627984 0.502056 -0.395783 -0.452032 -0.382544 -0.437807 -0.452032 -0.471749 -0.437807 -0.457519 -0.382544 -0.437807 -0.369304 -0.423656 0.699621 0.627984 0.676472 0.607173 0.627984 0.502056 0.607173 0.485084 0.676472 0.607173 0.6542 0.587678 0.607173 0.485084 0.587678 0.468773 -0.334022 -0.553725 -0.324054 -0.536594 -0.553725 -0.725742 -0.536594 -0.702202 -0.324054 -0.536594 -0.314494 -0.520188 -0.536594 -0.702202 -0.520188 -0.681736 -0.314494 -0.520188 -0.30534 -0.504523 -0.520188 -0.681736 -0.504523 -0.660585 -0.30534 -0.504523 -0.296568 -0.489345 -0.504523 -0.660585 -0.489345 -0.640281 -0.385364 -0.236754 -0.374882 -0.230287 -0.487179 -0.374882 -0.47345 -0.363767 -0.374882 -0.230287 -0.363767 -0.22382 -0.543104 -0.47345 -0.526149 -0.459285 -0.526149 -0.459285 -0.511337 -0.445684 -0.47345 -0.363767 -0.459285 -0.35313 -0.363767 -0.22382 -0.35313 -0.217378 -0.459285 -0.35313 -0.445684 -0.342727 -0.35313 -0.217378 -0.342727 -0.210936 0.104473 0.269105 0.101608 0.259041 0.269105 0.409343 0.259041 0.394604 0.101608 0.259041 0.0987423 0.2416 0.259041 0.394604 0.2416 0.384457 -0.681736 -0.785049 -0.660585 -0.759944 -0.785049 -0.819741 -0.759944 -0.794071 -0.660585 -0.759944 -0.640281 -0.736331 -0.759944 -0.794071 -0.736331 -0.769244 0 0.174407 0 0.174197 0.174407 0.348814 0.174197 0.335129 0 0.174197 0 0.16332 0.174197 0.335129 0.16332 0.326641 0.326641 0.453346 0.315985 0.438549 0.315985 0.438549 0.305329 0.423668 0.438549 0.523664 0.423668 0.506204 0.305329 0.423668 0.292346 0.409338 0.423668 0.506204 0.409338 0.488504 0.292346 0.409338 0.289539 0.384233 0.409338 0.488504 0.384233 0.478927 -0.342727 -0.210936 -0.331241 -0.204414 -0.331241 -0.204414 -0.322083 -0.197892 -0.480181 -0.41883 -0.465879 -0.404987 -0.487137 -0.465879 -0.471749 -0.452041 -0.465879 -0.404987 -0.452041 -0.395802 -0.41883 -0.322083 -0.404987 -0.311433 -0.322083 -0.197892 -0.311433 -0.193291 -0.404987 -0.311433 -0.395802 -0.292246 -0.311433 -0.193291 -0.292246 -0.188691 0.348814 0.484687 0.335129 0.469018 0.484687 0.57989 0.469018 0.560578 0.335129 0.469018 0.326641 0.453346 0.469018 0.560578 0.453346 0.542674 -0.471749 -0.452041 -0.457519 -0.437819 -0.452041 -0.395802 -0.437819 -0.382567 -0.437819 -0.382567 -0.42367 -0.369332 0.57989 0.623795 0.560578 0.603407 0.623795 0.613547 0.603407 0.593422 0.560578 0.603407 0.542674 0.584055 0.603407 0.593422 0.584055 0.574591 0.613547 0.550071 0.593422 0.531633 0.550071 0.438472 0.531633 0.422832 0.593422 0.531633 0.574591 0.513924 0.531633 0.422832 0.513924 0.409292 0.513924 0.409292 0.49608 0.394563 0.49608 0.394563 0.48023 0.384428 0.48023 0.384428 0.46607 0.371868 0.519939 0.46607 0.502642 0.450191 0.46607 0.371868 0.450191 0.359308 0.409343 0.513975 0.394604 0.496125 0.394604 0.496125 0.384457 0.480268 0.384457 0.480268 0.371866 0.466092 0.371866 0.466092 0.359275 0.450166 0.466092 0.520003 0.450166 0.502694 0.145838 -0.0785691 0.140247 -0.07701 -0.0785691 -0.296568 -0.07701 -0.288022 0.140247 -0.07701 0.133809 -0.0734152 -0.07701 -0.288022 -0.0734152 -0.280639 -0.296568 -0.489345 -0.288022 -0.474931 -0.489345 -0.640281 -0.474931 -0.620929 -0.288022 -0.474931 -0.280639 -0.461318 -0.474931 -0.620929 -0.461318 -0.602606 0.453388 0.32667 0.438617 0.316049 0.523733 0.438617 0.506311 0.423783 0.438617 0.316049 0.423783 0.305427 -0.640281 -0.736331 -0.620929 -0.71378 -0.736331 -0.769244 -0.71378 -0.745557 -0.620929 -0.71378 -0.602606 -0.692064 -0.71378 -0.745557 -0.692064 -0.722901 0.506311 0.423783 0.488677 0.409539 0.423783 0.305427 0.409539 0.292526 0.488677 0.409539 0.479198 0.384559 0.409539 0.292526 0.384559 0.28992 -0.602606 -0.692064 -0.58356 -0.67129 -0.692064 -0.722901 -0.67129 -0.70122 -0.58356 -0.67129 -0.566731 -0.651536 -0.67129 -0.70122 -0.651536 -0.680447 0.438597 0.550163 0.422906 0.531701 0.550163 0.613612 0.531701 0.593477 0.422906 0.531701 0.409343 0.513975 0.531701 0.593477 0.513975 0.574641 0.478927 0.512467 0.463647 0.497874 0.463647 0.497874 0.448368 0.482349 0.497874 0.486776 0.482349 0.475813 0.502642 0.450191 0.486776 0.434871 0.450191 0.359308 0.434871 0.343208 0.486776 0.434871 0.475813 0.407898 0.434871 0.343208 0.407898 0.339983 0.448368 0.482349 0.435085 0.467459 0.482349 0.475813 0.467459 0.459946 0.435085 0.467459 0.421802 0.452285 0.467459 0.459946 0.452285 0.444079 0.613612 0.623841 0.593477 0.603451 0.623841 0.579922 0.603451 0.560614 0.593477 0.603451 0.574641 0.584104 0.603451 0.560614 0.584104 0.542721 0.452285 0.444079 0.436229 0.430038 0.436229 0.430038 0.422627 0.415997 0.579922 0.48471 0.560614 0.469047 0.48471 0.348829 0.469047 0.335148 0.560614 0.469047 0.542721 0.453388 0.469047 0.335148 0.453388 0.32667 0.422627 0.415997 0.409851 0.404476 0.409851 0.404476 0.398598 0.392956 0.348829 0.174414 0.335148 0.174207 0.174414 2.34612e-16 0.174207 2.27394e-16 0.335148 0.174207 0.32667 0.163335 0.174207 2.27394e-16 0.163335 2.20398e-16 -0.725742 -0.553725 -0.702169 -0.536554 -0.553725 -0.334022 -0.536554 -0.324016 -0.702169 -0.536554 -0.681665 -0.520107 -0.536554 -0.324016 -0.520107 -0.314418 -0.819741 -0.785007 -0.794071 -0.75987 -0.785007 -0.681665 -0.75987 -0.660463 -0.794071 -0.75987 -0.769244 -0.736206 -0.75987 -0.660463 -0.736206 -0.640071 -0.681665 -0.520107 -0.660463 -0.504392 -0.520107 -0.314418 -0.504392 -0.305234 -0.660463 -0.504392 -0.640071 -0.48915 -0.504392 -0.305234 -0.48915 -0.296445 -0.769244 -0.736206 -0.745557 -0.713586 -0.736206 -0.640071 -0.713586 -0.620572 -0.745557 -0.713586 -0.722901 -0.691961 -0.713586 -0.620572 -0.691961 -0.601911 -0.640071 -0.48915 -0.620572 -0.474523 -0.48915 -0.296445 -0.474523 -0.288015 -0.620572 -0.474523 -0.601911 -0.460502 -0.474523 -0.288015 -0.460502 -0.279924 -0.722901 -0.691961 -0.70122 -0.671293 -0.691961 -0.601911 -0.671293 -0.584047 -0.70122 -0.671293 -0.680447 -0.651483 -0.671293 -0.584047 -0.651483 -0.567192 -0.601911 -0.460502 -0.584047 -0.447039 -0.460502 -0.279924 -0.447039 -0.272094 -0.584047 -0.447039 -0.567192 -0.433916 -0.447039 -0.272094 -0.433916 -0.264374 -0.296445 -0.0785315 -0.288015 -0.077089 -0.0785315 0.145881 -0.077089 0.140129 -0.288015 -0.077089 -0.279924 -0.075721 -0.077089 0.140129 -0.075721 0.134564 -0.279924 -0.075721 -0.272094 -0.074362 -0.075721 0.134564 -0.074362 0.129177 -0.272094 -0.074362 -0.264374 -0.0729685 -0.074362 0.129177 -0.0729685 0.124117 0.5773 0.721282 0.557307 0.695853 0.721282 0.801585 0.695853 0.773291 0.557307 0.695853 0.538175 0.672199 0.695853 0.773291 0.672199 0.74825 0.538175 0.672199 0.519854 0.649757 0.672199 0.74825 0.649757 0.723541 0.519854 0.649757 0.502259 0.628115 0.649757 0.723541 0.628115 0.699704 0.502259 0.628115 0.485324 0.607319 0.628115 0.699704 0.607319 0.676561 0.485324 0.607319 0.469006 0.58782 0.607319 0.676561 0.58782 0.654287 0.359275 0.450166 0.343113 0.434754 0.450166 0.502694 0.434754 0.486693 0.343113 0.434754 0.339825 0.407645 0.434754 0.486693 0.407645 0.475464 0.51267 0.479198 0.498095 0.464435 0.486693 0.498095 0.475464 0.48197 0.498095 0.464435 0.48197 0.449672 -0.264374 -0.0729685 -0.256849 -0.0715558 -0.0729685 0.124117 -0.0715558 0.119392 -0.256849 -0.0715558 -0.250555 -0.0683432 -0.0715558 0.119392 -0.0683432 0.113869 0.475464 0.48197 0.45944 0.466643 0.48197 0.449672 0.466643 0.431523 0.45944 0.466643 0.443415 0.450231 0 0.131896 0 0.127281 0.131896 0.253666 0.127281 0.241997 0 0.127281 0 0.122781 0.127281 0.241997 0.122781 0.235105 0.449672 0.360917 0.431523 0.360449 0.360917 0.272163 0.360449 0.257938 0.431523 0.360449 0.417767 0.349498 0.360449 0.257938 0.349498 0.251043 0.253666 0.337734 0.241997 0.337523 0.337734 0.421802 0.337523 0.40337 0.241997 0.337523 0.235105 0.327201 0.337523 0.40337 0.327201 0.391908 0.443415 0.450231 0.429652 0.436221 0.429652 0.436221 0.415889 0.422787 0 0.122781 0 0.119108 0.122781 0.235105 0.119108 0.226977 0 0.119108 0 0.112403 0.119108 0.226977 0.112403 0.224807 0.415889 0.422787 0.40444 0.40998 0.40444 0.40998 0.392991 0.398689 0.235105 0.327201 0.226977 0.317141 0.327201 0.391908 0.317141 0.378926 0.226977 0.317141 0.224807 0.298338 0.317141 0.378926 0.298338 0.371869 0.417767 0.349498 0.405014 0.338745 0.349498 0.251043 0.338745 0.243356 0.405014 0.338745 0.392382 0.327959 0.338745 0.243356 0.327959 0.235628 0.251043 0.131085 0.243356 0.127115 0.131085 1.71646e-16 0.127115 1.66365e-16 0.243356 0.127115 0.235628 0.123049 0.127115 1.66365e-16 0.123049 1.61247e-16 0.392382 0.327959 0.379207 0.317486 0.327959 0.235628 0.317486 0.227279 0.379207 0.317486 0.372025 0.298498 0.317486 0.227279 0.298498 0.224971 0.235628 0.123049 0.227279 0.119272 0.123049 1.61247e-16 0.119272 1.56286e-16 0.227279 0.119272 0.224971 0.112486 0.119272 1.56286e-16 0.112486 1.51477e-16 0.359308 0.225151 0.343208 0.225428 0.225151 0.0909937 0.225428 0.0878147 0.343208 0.225428 0.339983 0.212309 0.225428 0.0878147 0.212309 0.0846356 -0.445698 -0.511346 -0.431168 -0.495764 -0.511346 -0.534813 -0.495764 -0.517662 -0.431168 -0.495764 -0.418824 -0.480179 -0.495764 -0.517662 -0.480179 -0.502387 -0.369304 -0.423656 -0.359455 -0.410004 -0.423656 -0.44272 -0.410004 -0.426146 -0.359455 -0.410004 -0.349605 -0.385357 -0.410004 -0.426146 -0.385357 -0.421109 0 0.152665 0 0.153057 0.152665 0.305329 0.153057 0.292346 0 0.153057 0 0.144769 0.153057 0.292346 0.144769 0.289539 -0.534813 -0.511337 -0.517662 -0.495762 -0.511337 -0.445684 -0.495762 -0.431165 -0.517662 -0.495762 -0.502387 -0.480181 -0.495762 -0.431165 -0.480181 -0.41883 0.0909827 0.225129 0.0877787 0.225365 0.225129 0.359275 0.225365 0.343113 0.0877787 0.225365 0.0845746 0.2122 0.225365 0.343113 0.2122 0.339825 -0.44272 -0.42367 -0.426146 -0.410019 -0.42367 -0.369332 -0.410019 -0.359486 -0.426146 -0.410019 -0.421109 -0.385375 -0.410019 -0.359486 -0.385375 -0.349641 0.305427 0.152714 0.292526 0.153166 0.152714 2.07045e-16 0.153166 2.00675e-16 0.292526 0.153166 0.28992 0.14496 0.153166 2.00675e-16 0.14496 1.94501e-16 0 0.135413 0 0.136125 0.135413 0.270826 0.136125 0.262246 0 0.136125 0 0.131896 0.136125 0.262246 0.131896 0.253666 0.272163 0.136081 0.257938 0.135404 0.136081 1.82716e-16 0.135404 1.77095e-16 0.257938 0.135404 0.251043 0.131085 0.135404 1.77095e-16 0.131085 1.71646e-16 -0.286717 -0.210482 -0.276852 -0.210486 -0.210482 -0.134247 -0.210486 -0.128564 -0.276852 -0.210486 -0.266986 -0.203704 -0.210486 -0.128564 -0.203704 -0.12288 0.0645317 0.157044 0.0633582 0.159088 0.157044 0.249556 0.159088 0.2416 0.0633582 0.159088 0.0621847 0.156377 0.159088 0.2416 0.156377 0.236571 0.0621847 0.156377 0.0624142 0.15372 0.156377 0.236571 0.15372 0.231652 0.0624142 0.15372 0.0626437 0.151366 0.15372 0.231652 0.151366 0.227053 0.317125 0.198534 0.306144 0.198951 0.198534 0.0799431 0.198951 0.0761741 0.306144 0.198951 0.295163 0.193282 0.198951 0.0761741 0.193282 0.0724052 0.295163 0.193282 0.28778 0.186995 0.193282 0.0724052 0.186995 0.0714081 0.28778 0.186995 0.280398 0.175404 0.186995 0.0714081 0.175404 0.070411 0.371869 0.398598 0.360396 0.386544 0.398598 0.392956 0.386544 0.377828 0.360396 0.386544 0.348923 0.374882 0.386544 0.377828 0.374882 0.367946 0.392956 0.336677 0.377828 0.338168 0.336677 0.280398 0.338168 0.270969 0.377828 0.338168 0.367946 0.32933 0.338168 0.270969 0.32933 0.261539 0.348923 0.374882 0.339558 0.364259 0.374882 0.367946 0.364259 0.357769 0.339558 0.364259 0.330193 0.353906 0.364259 0.357769 0.353906 0.348 0.367946 0.32933 0.357769 0.320343 0.32933 0.261539 0.320343 0.255137 0.357769 0.320343 0.348 0.311946 0.320343 0.255137 0.311946 0.248735 0 0.0999328 0 0.100022 0.0999328 0.199866 0.100022 0.190528 0 0.100022 0 0.0975036 0.100022 0.190528 0.0975036 0.186713 0.199866 0.265029 0.190528 0.266218 0.265029 0.330193 0.266218 0.318365 0.190528 0.266218 0.186713 0.259908 0.266218 0.318365 0.259908 0.310971 0 0.0975036 0 0.0953317 0.0975036 0.186713 0.0953317 0.182481 0 0.0953317 0 0.0932107 0.0953317 0.182481 0.0932107 0.178394 0.186713 0.259908 0.182481 0.253972 0.259908 0.310971 0.253972 0.303619 0.182481 0.253972