# vtk DataFile Version 3.0
#This file was generated by the deal.II library on 2018/12/4 at 0:47:19
ASCII
DATASET UNSTRUCTURED_GRID

POINTS 81316 double
0.3125 0.15625 0
0.34375 0.15625 0
0.3125 0.1875 0
0.34375 0.1875 0
0.65625 0.15625 0
0.6875 0.15625 0
0.65625 0.1875 0
0.6875 0.1875 0
0.65625 0.1875 0
0.6875 0.1875 0
0.65625 0.21875 0
0.6875 0.21875 0
0.65625 0.21875 0
0.6875 0.21875 0
0.65625 0.25 0
0.6875 0.25 0
0.65625 0.25 0
0.6875 0.25 0
0.65625 0.28125 0
0.6875 0.28125 0
0.65625 0.28125 0
0.6875 0.28125 0
0.65625 0.3125 0
0.6875 0.3125 0
0 0.625 0
0.03125 0.625 0
0 0.65625 0
0.03125 0.65625 0
0 0.4375 0
0.03125 0.4375 0
0 0.46875 0
0.03125 0.46875 0
0 0.46875 0
0.03125 0.46875 0
0 0.5 0
0.03125 0.5 0
0.96875 0.4375 0
1 0.4375 0
0.96875 0.46875 0
1 0.46875 0
0.96875 0.46875 0
1 0.46875 0
0.96875 0.5 0
1 0.5 0
0.96875 0.59375 0
1 0.59375 0
0.96875 0.625 0
1 0.625 0
0.6875 0.875 0
0.71875 0.875 0
0.6875 0.90625 0
0.71875 0.90625 0
0.6875 0.90625 0
0.71875 0.90625 0
0.6875 0.9375 0
0.71875 0.9375 0
0.3125 0.1875 0
0.34375 0.1875 0
0.3125 0.21875 0
0.34375 0.21875 0
0.3125 0.21875 0
0.34375 0.21875 0
0.3125 0.25 0
0.34375 0.25 0
0.3125 0.25 0
0.34375 0.25 0
0.3125 0.28125 0
0.34375 0.28125 0
0.3125 0.28125 0
0.34375 0.28125 0
0.3125 0.3125 0
0.34375 0.3125 0
0.3125 0.3125 0
0.34375 0.3125 0
0.3125 0.34375 0
0.34375 0.34375 0
0.65625 0.3125 0
0.6875 0.3125 0
0.65625 0.34375 0
0.6875 0.34375 0
0.3125 0.5 0
0.34375 0.5 0
0.3125 0.53125 0
0.34375 0.53125 0
0.3125 0.5625 0
0.34375 0.5625 0
0.3125 0.59375 0
0.34375 0.59375 0
0.3125 0.59375 0
0.34375 0.59375 0
0.3125 0.625 0
0.34375 0.625 0
0.34375 0.59375 0
0.375 0.59375 0
0.34375 0.625 0
0.375 0.625 0
0 0.375 0
0.03125 0.375 0
0 0.40625 0
0.03125 0.40625 0
0 0.40625 0
0.03125 0.40625 0
0 0.4375 0
0.03125 0.4375 0
0.65625 0.5 0
0.6875 0.5 0
0.65625 0.53125 0
0.6875 0.53125 0
0.65625 0.5625 0
0.6875 0.5625 0
0.65625 0.59375 0
0.6875 0.59375 0
0.625 0.59375 0
0.65625 0.59375 0
0.625 0.625 0
0.65625 0.625 0
0.65625 0.59375 0
0.6875 0.59375 0
0.65625 0.625 0
0.6875 0.625 0
0.96875 0.375 0
1 0.375 0
0.96875 0.40625 0
1 0.40625 0
0.96875 0.40625 0
1 0.40625 0
0.96875 0.4375 0
1 0.4375 0
0 0.5 0
0.03125 0.5 0
0 0.53125 0
0.03125 0.53125 0
0 0.53125 0
0.03125 0.53125 0
0 0.5625 0
0.03125 0.5625 0
0.34375 0.75 0
0.375 0.75 0
0.34375 0.78125 0
0.375 0.78125 0
0.34375 0.78125 0
0.375 0.78125 0
0.34375 0.8125 0
0.375 0.8125 0
0.3125 0.8125 0
0.34375 0.8125 0
0.3125 0.84375 0
0.34375 0.84375 0
0.34375 0.8125 0
0.375 0.8125 0
0.34375 0.84375 0
0.375 0.84375 0
0.3125 0.84375 0
0.34375 0.84375 0
0.3125 0.875 0
0.34375 0.875 0
0.34375 0.84375 0
0.375 0.84375 0
0.34375 0.875 0
0.375 0.875 0
0.28125 0.875 0
0.3125 0.875 0
0.28125 0.90625 0
0.3125 0.90625 0
0.28125 0.90625 0
0.3125 0.90625 0
0.28125 0.9375 0
0.3125 0.9375 0
0.3125 0.875 0
0.34375 0.875 0
0.3125 0.90625 0
0.34375 0.90625 0
0.34375 0.875 0
0.375 0.875 0
0.34375 0.90625 0
0.375 0.90625 0
0.3125 0.90625 0
0.34375 0.90625 0
0.3125 0.9375 0
0.34375 0.9375 0
0.34375 0.90625 0
0.375 0.90625 0
0.34375 0.9375 0
0.375 0.9375 0
0.28125 0.9375 0
0.3125 0.9375 0
0.28125 0.96875 0
0.3125 0.96875 0
0.28125 0.96875 0
0.3125 0.96875 0
0.28125 1 0
0.3125 1 0
0.3125 0.9375 0
0.34375 0.9375 0
0.3125 0.96875 0
0.34375 0.96875 0
0.3125 0.96875 0
0.34375 0.96875 0
0.3125 1 0
0.34375 1 0
0.96875 0.5 0
1 0.5 0
0.96875 0.53125 0
1 0.53125 0
0.96875 0.53125 0
1 0.53125 0
0.96875 0.5625 0
1 0.5625 0
0.625 0.75 0
0.65625 0.75 0
0.625 0.78125 0
0.65625 0.78125 0
0.625 0.78125 0
0.65625 0.78125 0
0.625 0.8125 0
0.65625 0.8125 0
0.625 0.8125 0
0.65625 0.8125 0
0.625 0.84375 0
0.65625 0.84375 0
0.65625 0.8125 0
0.6875 0.8125 0
0.65625 0.84375 0
0.6875 0.84375 0
0.625 0.84375 0
0.65625 0.84375 0
0.625 0.875 0
0.65625 0.875 0
0.65625 0.84375 0
0.6875 0.84375 0
0.65625 0.875 0
0.6875 0.875 0
0.625 0.875 0
0.65625 0.875 0
0.625 0.90625 0
0.65625 0.90625 0
0.65625 0.875 0
0.6875 0.875 0
0.65625 0.90625 0
0.6875 0.90625 0
0.625 0.90625 0
0.65625 0.90625 0
0.625 0.9375 0
0.65625 0.9375 0
0.65625 0.90625 0
0.6875 0.90625 0
0.65625 0.9375 0
0.6875 0.9375 0
0.3125 0.625 0
0.34375 0.625 0
0.3125 0.65625 0
0.34375 0.65625 0
0.34375 0.625 0
0.375 0.625 0
0.34375 0.65625 0
0.375 0.65625 0
0.3125 0.65625 0
0.34375 0.65625 0
0.3125 0.6875 0
0.34375 0.6875 0
0.34375 0.65625 0
0.375 0.65625 0
0.34375 0.6875 0
0.375 0.6875 0
0.3125 0.6875 0
0.34375 0.6875 0
0.3125 0.71875 0
0.34375 0.71875 0
0.34375 0.6875 0
0.375 0.6875 0
0.34375 0.71875 0
0.375 0.71875 0
0.3125 0.71875 0
0.34375 0.71875 0
0.3125 0.75 0
0.34375 0.75 0
0.34375 0.71875 0
0.375 0.71875 0
0.34375 0.75 0
0.375 0.75 0
0.625 0.625 0
0.65625 0.625 0
0.625 0.65625 0
0.65625 0.65625 0
0.65625 0.625 0
0.6875 0.625 0
0.65625 0.65625 0
0.6875 0.65625 0
0.625 0.65625 0
0.65625 0.65625 0
0.625 0.6875 0
0.65625 0.6875 0
0.65625 0.65625 0
0.6875 0.65625 0
0.65625 0.6875 0
0.6875 0.6875 0
0.625 0.6875 0
0.65625 0.6875 0
0.625 0.71875 0
0.65625 0.71875 0
0.65625 0.6875 0
0.6875 0.6875 0
0.65625 0.71875 0
0.6875 0.71875 0
0.625 0.71875 0
0.65625 0.71875 0
0.625 0.75 0
0.65625 0.75 0
0.65625 0.71875 0
0.6875 0.71875 0
0.65625 0.75 0
0.6875 0.75 0
0.65625 0.9375 0
0.6875 0.9375 0
0.65625 0.96875 0
0.6875 0.96875 0
0.65625 0.96875 0
0.6875 0.96875 0
0.65625 1 0
0.6875 1 0
0.6875 0.9375 0
0.71875 0.9375 0
0.6875 0.96875 0
0.71875 0.96875 0
0.6875 0.96875 0
0.71875 0.96875 0
0.6875 1 0
0.71875 1 0
0 0.125 0
0.015625 0.125 0
0 0.140625 0
0.015625 0.140625 0
0.015625 0.125 0
0.03125 0.125 0
0.015625 0.140625 0
0.03125 0.140625 0
0 0.140625 0
0.015625 0.140625 0
0 0.15625 0
0.015625 0.15625 0
0.015625 0.140625 0
0.03125 0.140625 0
0.015625 0.15625 0
0.03125 0.15625 0
0.296875 0.046875 0
0.3125 0.046875 0
0.296875 0.0625 0
0.3125 0.0625 0
0.6875 0.046875 0
0.703125 0.046875 0
0.6875 0.0625 0
0.703125 0.0625 0
0.296875 0.65625 0
0.3125 0.65625 0
0.296875 0.671875 0
0.3125 0.671875 0
0.296875 0.671875 0
0.3125 0.671875 0
0.296875 0.6875 0
0.3125 0.6875 0
0.875 0.484375 0
0.890625 0.484375 0
0.875 0.5 0
0.890625 0.5 0
0.296875 0.6875 0
0.3125 0.6875 0
0.296875 0.703125 0
0.3125 0.703125 0
0.296875 0.703125 0
0.3125 0.703125 0
0.296875 0.71875 0
0.3125 0.71875 0
0.6875 0.65625 0
0.703125 0.65625 0
0.6875 0.671875 0
0.703125 0.671875 0
0.6875 0.671875 0
0.703125 0.671875 0
0.6875 0.6875 0
0.703125 0.6875 0
0.6875 0.6875 0
0.703125 0.6875 0
0.6875 0.703125 0
0.703125 0.703125 0
0.6875 0.703125 0
0.703125 0.703125 0
0.6875 0.71875 0
0.703125 0.71875 0
0 0.15625 0
0.015625 0.15625 0
0 0.171875 0
0.015625 0.171875 0
0.015625 0.15625 0
0.03125 0.15625 0
0.015625 0.171875 0
0.03125 0.171875 0
0 0.171875 0
0.015625 0.171875 0
0 0.1875 0
0.015625 0.1875 0
0.015625 0.171875 0
0.03125 0.171875 0
0.015625 0.1875 0
0.03125 0.1875 0
0.3125 0.53125 0
0.328125 0.53125 0
0.3125 0.546875 0
0.328125 0.546875 0
0.328125 0.53125 0
0.34375 0.53125 0
0.328125 0.546875 0
0.34375 0.546875 0
0.3125 0.546875 0
0.328125 0.546875 0
0.3125 0.5625 0
0.328125 0.5625 0
0.328125 0.546875 0
0.34375 0.546875 0
0.328125 0.5625 0
0.34375 0.5625 0
0.03125 0.3125 0
0.046875 0.3125 0
0.03125 0.328125 0
0.046875 0.328125 0
0.046875 0.3125 0
0.0625 0.3125 0
0.046875 0.328125 0
0.0625 0.328125 0
0.375 0.484375 0
0.390625 0.484375 0
0.375 0.5 0
0.390625 0.5 0
0.125 0.71875 0
0.140625 0.71875 0
0.125 0.734375 0
0.140625 0.734375 0
0.9375 0.3125 0
0.953125 0.3125 0
0.9375 0.328125 0
0.953125 0.328125 0
0.953125 0.3125 0
0.96875 0.3125 0
0.953125 0.328125 0
0.96875 0.328125 0
0.859375 0.71875 0
0.875 0.71875 0
0.859375 0.734375 0
0.875 0.734375 0
0.078125 0.6875 0
0.09375 0.6875 0
0.078125 0.703125 0
0.09375 0.703125 0
0.90625 0.6875 0
0.921875 0.6875 0
0.90625 0.703125 0
0.921875 0.703125 0
0.609375 0.484375 0
0.625 0.484375 0
0.609375 0.5 0
0.625 0.5 0
0.03125 0.28125 0
0.046875 0.28125 0
0.03125 0.296875 0
0.046875 0.296875 0
0.046875 0.28125 0
0.0625 0.28125 0
0.046875 0.296875 0
0.0625 0.296875 0
0.03125 0.296875 0
0.046875 0.296875 0
0.03125 0.3125 0
0.046875 0.3125 0
0.046875 0.296875 0
0.0625 0.296875 0
0.046875 0.3125 0
0.0625 0.3125 0
0.9375 0.28125 0
0.953125 0.28125 0
0.9375 0.296875 0
0.953125 0.296875 0
0.953125 0.28125 0
0.96875 0.28125 0
0.953125 0.296875 0
0.96875 0.296875 0
0.9375 0.296875 0
0.953125 0.296875 0
0.9375 0.3125 0
0.953125 0.3125 0
0.953125 0.296875 0
0.96875 0.296875 0
0.953125 0.3125 0
0.96875 0.3125 0
0.25 0.453125 0
0.265625 0.453125 0
0.25 0.46875 0
0.265625 0.46875 0
0.25 0.46875 0
0.265625 0.46875 0
0.25 0.484375 0
0.265625 0.484375 0
0.25 0.484375 0
0.265625 0.484375 0
0.25 0.5 0
0.265625 0.5 0
0.34375 0.15625 0
0.359375 0.15625 0
0.34375 0.171875 0
0.359375 0.171875 0
0.359375 0.15625 0
0.375 0.15625 0
0.359375 0.171875 0
0.375 0.171875 0
0.34375 0.171875 0
0.359375 0.171875 0
0.34375 0.1875 0
0.359375 0.1875 0
0.359375 0.171875 0
0.375 0.171875 0
0.359375 0.1875 0
0.375 0.1875 0
0.421875 0.640625 0
0.4375 0.640625 0
0.421875 0.65625 0
0.4375 0.65625 0
0.421875 0.65625 0
0.4375 0.65625 0
0.421875 0.671875 0
0.4375 0.671875 0
0.421875 0.671875 0
0.4375 0.671875 0
0.421875 0.6875 0
0.4375 0.6875 0
0.421875 0.6875 0
0.4375 0.6875 0
0.421875 0.703125 0
0.4375 0.703125 0
0.421875 0.703125 0
0.4375 0.703125 0
0.421875 0.71875 0
0.4375 0.71875 0
0.109375 0.75 0
0.125 0.75 0
0.109375 0.765625 0
0.125 0.765625 0
0.109375 0.765625 0
0.125 0.765625 0
0.109375 0.78125 0
0.125 0.78125 0
0.109375 0.78125 0
0.125 0.78125 0
0.109375 0.796875 0
0.125 0.796875 0
0.109375 0.796875 0
0.125 0.796875 0
0.109375 0.8125 0
0.125 0.8125 0
0.109375 0.859375 0
0.125 0.859375 0
0.109375 0.875 0
0.125 0.875 0
0.734375 0.453125 0
0.75 0.453125 0
0.734375 0.46875 0
0.75 0.46875 0
0.734375 0.46875 0
0.75 0.46875 0
0.734375 0.484375 0
0.75 0.484375 0
0.734375 0.484375 0
0.75 0.484375 0
0.734375 0.5 0
0.75 0.5 0
0.5625 0.640625 0
0.578125 0.640625 0
0.5625 0.65625 0
0.578125 0.65625 0
0.5625 0.65625 0
0.578125 0.65625 0
0.5625 0.671875 0
0.578125 0.671875 0
0.5625 0.671875 0
0.578125 0.671875 0
0.5625 0.6875 0
0.578125 0.6875 0
0.5625 0.6875 0
0.578125 0.6875 0
[...]
POINT_DATA 81316
SCALARS U double 1
LOOKUP_TABLE default
0.127159 -0.0662102 0.122861 -0.0645464 -0.0662073 0.127163 -0.0645427 0.122866 -0.0645427 0.122866 -0.0628842 0.118752 -0.0628842 0.118752 -0.0612636 0.114787 -0.0612636 0.114787 -0.0596807 0.110959 -0.0596807 0.110959 -0.0581436 0.107267 0 0.119461 0 0.115794 0 0.144026 0 0.139552 0 0.139552 0 0.13525 0.144033 1.82899e-16 0.139561 1.77272e-16 0.139561 1.77272e-16 0.135251 1.71818e-16 0.123196 1.56442e-16 0.119435 1.51629e-16 0.0614615 0.15038 0.0597937 0.145923 0.0597937 0.145923 0.0582404 0.141709 0.122861 -0.0645464 0.118746 -0.0628918 0.118746 -0.0628918 0.114781 -0.0612754 0.114781 -0.0612754 0.110958 -0.0596884 0.110958 -0.0596884 0.107269 -0.0581206 0.107269 -0.0581206 0.103739 -0.0566147 -0.0581436 0.107267 -0.0566216 0.103737 0.0879119 -0.0492497 0.0851033 -0.0478186 0.0824019 -0.0463472 0.0798431 -0.0451705 0.0798431 -0.0451705 0.0773584 -0.0437238 -0.0451705 -0.166506 -0.0437238 -0.161259 0 0.153495 0 0.148633 0 0.148633 0 0.144026 -0.0492502 0.087916 -0.0478125 0.0851087 -0.0463317 0.0824058 -0.0451747 0.0798441 -0.166515 -0.0451747 -0.161262 -0.043727 -0.0451747 0.0798441 -0.043727 0.077356 0.153497 1.94695e-16 0.148637 1.88705e-16 0.148637 1.88705e-16 0.144033 1.82899e-16 0 0.13525 0 0.131125 0 0.131125 0 0.127173 -0.0382033 -0.141928 -0.0369204 -0.137411 -0.0369204 -0.137411 -0.0355521 -0.132984 0.0647749 -0.0355521 0.0629217 -0.0342134 -0.0355521 -0.132984 -0.0342134 -0.128645 0.0629217 -0.0342134 0.0614633 -0.0328881 -0.0342134 -0.128645 -0.0328881 -0.124416 0.150387 0.0614633 0.145905 0.05979 0.145905 0.05979 0.141686 0.058235 0.0614633 -0.0328881 0.05979 -0.0315889 -0.0328881 -0.124416 -0.0315889 -0.120306 0.05979 -0.0315889 0.058235 -0.030348 -0.0315889 -0.120306 -0.030348 -0.116395 0.141686 0.058235 0.137625 0.0567571 0.137625 0.0567571 0.133714 0.0553382 0.058235 -0.030348 0.0567571 -0.0289556 0.0567571 -0.0289556 0.0553382 -0.027803 0.135251 1.71818e-16 0.131099 1.66532e-16 0.131099 1.66532e-16 0.127086 1.61408e-16 -0.141931 -0.0382069 -0.137415 -0.0369248 -0.137415 -0.0369248 -0.132989 -0.0355573 -0.132989 -0.0355573 -0.128653 -0.0342191 -0.0355573 0.0647689 -0.0342191 0.0629155 -0.128653 -0.0342191 -0.124427 -0.0328937 -0.0342191 0.0629155 -0.0328937 0.0614615 -0.124427 -0.0328937 -0.120322 -0.0315919 -0.0328937 0.0614615 -0.0315919 0.0597937 -0.120322 -0.0315919 -0.116395 -0.0303496 -0.0315919 0.0597937 -0.0303496 0.0582404 0.0773584 -0.0437238 0.0750137 -0.0423173 -0.0437238 -0.161259 -0.0423173 -0.156238 0.0750137 -0.0423173 0.072767 -0.04093 -0.0423173 -0.156238 -0.04093 -0.151339 0.072767 -0.04093 0.0706588 -0.0395582 -0.04093 -0.151339 -0.0395582 -0.14656 0.0706588 -0.0395582 0.0686241 -0.0382033 -0.0395582 -0.14656 -0.0382033 -0.141928 -0.161262 -0.043727 -0.156241 -0.04232 -0.043727 0.077356 -0.04232 0.0750108 -0.156241 -0.04232 -0.151341 -0.0409329 -0.04232 0.0750108 -0.0409329 0.0727638 -0.151341 -0.0409329 -0.146562 -0.0395613 -0.0409329 0.0727638 -0.0395613 0.0706553 -0.146562 -0.0395613 -0.141931 -0.0382069 -0.0395613 0.0706553 -0.0382069 0.06862 -0.0303496 0.0582404 -0.0289556 0.0567603 -0.0289556 0.0567603 -0.027803 0.0553382 0.0582404 0.141709 0.0567603 0.137624 0.0567603 0.137624 0.0553382 0.133714 0 0.099736 0 0.0981736 0.099736 0.197313 0.0981736 0.194223 0 0.0981736 0 0.0966318 0.0981736 0.194223 0.0966318 0.191177 0.247449 0.143097 0.243347 0.140706 0.143098 0.247451 0.140709 0.243349 0.131844 0.0750137 0.129739 0.0738904 0.129739 0.0738904 0.127794 0.072767 0.437236 0.406016 0.430442 0.399703 0.127794 0.072767 0.125841 0.0717129 0.125841 0.0717129 0.12404 0.0706588 0.0750108 0.131841 0.0738873 0.129736 0.0738873 0.129736 0.0727638 0.12779 0.0727638 0.12779 0.0717095 0.125838 0.0717095 0.125838 0.0706553 0.124037 0 0.0966318 0 0.0951289 0.0966318 0.191177 0.0951289 0.188142 0 0.0951289 0 0.0936521 0.0951289 0.188142 0.0936521 0.185315 0.0851033 0.0186423 0.0836601 0.0184806 0.0186423 -0.0478186 0.0184806 -0.0471794 0.0836601 0.0184806 0.0824019 0.0180273 0.0184806 -0.0471794 0.0180273 -0.0463472 0.16336 0.240604 0.160809 0.236865 0.240604 0.312612 0.236865 0.307738 -0.185392 -0.247738 -0.182539 -0.244053 0.345856 0.363055 0.340502 0.357464 0.312614 0.240605 0.307741 0.236867 0.240605 0.163361 0.236867 0.16081 0.363056 0.345859 0.357464 0.340503 0.259409 0.298552 0.255349 0.293918 0.29856 0.259419 0.293925 0.255357 -0.247736 -0.185391 -0.244052 -0.18254 0.168583 0.248392 0.165961 0.244433 0.248392 0.322653 0.244433 0.317582 0.165961 0.244433 0.16336 0.240604 0.244433 0.317582 0.240604 0.312612 0.322655 0.248394 0.317584 0.244434 0.248394 0.168584 0.244434 0.165962 0.317584 0.244434 0.312614 0.240605 0.244434 0.165962 0.240605 0.163361 0.34365 0.288956 0.338193 0.284346 0.338193 0.284346 0.332889 0.279876 0.332889 0.279876 0.327732 0.275539 -0.0662102 -0.161952 -0.0653783 -0.159545 -0.161952 -0.254071 -0.159545 -0.250268 -0.0653783 -0.159545 -0.0645464 -0.157233 -0.159545 -0.250268 -0.157233 -0.24655 -0.304451 -0.341231 -0.299623 -0.335831 -0.299623 -0.335831 -0.294917 -0.330562 -0.294917 -0.330562 -0.290285 -0.325377 -0.290285 -0.325377 -0.285725 -0.320273 -0.285725 -0.320273 -0.281273 -0.315289 0.311337 0.335237 0.306468 0.330034 0.306468 0.330034 0.301747 0.324958 0.301747 0.324958 0.297117 0.319976 0.297117 0.319976 0.292616 0.315129 0.279396 0.3009 0.275127 0.296307 0.28896 0.343654 0.284351 0.338197 0.284351 0.338197 0.279881 0.332894 0.279881 0.332894 0.275545 0.327739 -0.341232 -0.304452 -0.335832 -0.299624 -0.335832 -0.299624 -0.330563 -0.294918 -0.330563 -0.294918 -0.325378 -0.290286 -0.325378 -0.290286 -0.320274 -0.285727 -0.320274 -0.285727 -0.31529 -0.281275 0.335238 0.311339 0.330034 0.306468 0.330034 0.306468 0.324957 0.301747 0.324957 0.301747 0.319975 0.297116 0.319975 0.297116 0.315127 0.292615 0.300899 0.279395 0.296307 0.275128 0.312989 0.360223 0.308097 0.354611 -0.254071 -0.16195 -0.25027 -0.159544 -0.16195 -0.0662073 -0.159544 -0.065375 -0.25027 -0.159544 -0.246551 -0.15723 -0.159544 -0.065375 -0.15723 -0.0645427 -0.246551 -0.15723 -0.242893 -0.154958 -0.15723 -0.0645427 -0.154958 -0.0637134 -0.242893 -0.154958 -0.239288 -0.152719 -0.154958 -0.0637134 -0.152719 -0.0628842 -0.239288 -0.152719 -0.235736 -0.15051 -0.152719 -0.0628842 -0.15051 -0.0620739 -0.235736 -0.15051 -0.232236 -0.148333 -0.15051 -0.0620739 -0.148333 -0.0612636 -0.232236 -0.148333 -0.228786 -0.146184 -0.148333 -0.0612636 -0.146184 -0.0604721 -0.228786 -0.146184 -0.225383 -0.144064 -0.146184 -0.0604721 -0.144064 -0.0596807 -0.351215 -0.363106 -0.345651 -0.357349 -0.363106 -0.367064 -0.357349 -0.361246 0.228383 0.175791 0.224822 0.173064 0.175791 0.119435 0.173064 0.117437 0.224822 0.173064 0.221322 0.170289 0.217231 0.15426 0.213779 0.151813 0.15426 0.0879119 0.151813 0.0865076 0.213779 0.151813 0.210407 0.149402 0.151813 0.0865076 0.149402 0.0851033 0.210407 0.149402 0.207108 0.147084 0.149402 0.0851033 0.147084 0.0836601 0.139552 0.205593 0.137401 0.20223 0.137401 0.20223 0.13525 0.19925 -0.367064 -0.363107 -0.361246 -0.35735 -0.363107 -0.351216 -0.35735 -0.345652 0.087916 0.154264 0.0865123 0.151818 0.154264 0.217236 0.151818 0.213784 0.0865123 0.151818 0.0851087 0.149406 0.151818 0.213784 0.149406 0.210411 0.0851087 0.149406 0.0836657 0.147088 0.149406 0.210411 0.147088 0.20711 0.205609 0.139561 0.202243 0.137406 0.202243 0.137406 0.199261 0.135251 0.239368 0.184256 0.235643 0.181361 0.184256 0.124881 0.181361 0.123196 0.235643 0.181361 0.231985 0.178575 0.181361 0.123196 0.178575 0.121315 0.231985 0.178575 0.228383 0.175791 0.178575 0.121315 0.175791 0.119435 -0.220802 -0.189182 -0.2172 -0.186055 -0.189182 -0.153361 -0.186055 -0.150853 -0.2172 -0.186055 -0.213658 -0.182913 -0.213658 -0.182913 -0.210174 -0.179948 0.150425 0.0378337 0.147913 0.037069 0.0378337 -0.0755763 0.037069 -0.0745908 0.147913 0.037069 0.145416 0.0363421 0.037069 -0.0745908 0.0363421 -0.0735998 0.239155 0.188644 0.235462 0.185714 0.135952 0.0773584 0.133852 0.0761861 0.188644 0.133852 0.185714 0.131844 0.133852 0.0761861 0.131844 0.0750137 0.235462 0.185714 0.231842 0.182774 0.231842 0.182774 0.228282 0.180005 -0.0755763 -0.18735 -0.0745908 -0.184642 -0.18735 -0.295069 -0.184642 -0.290683 -0.0745908 -0.184642 -0.0735998 -0.182023 -0.184642 -0.290683 -0.182023 -0.286397 0.228282 0.180005 0.224802 0.177243 0.224802 0.177243 0.221375 0.174637 0.145416 0.0363421 0.143097 0.0356308 0.0363421 -0.0735998 0.0356308 -0.0725476 0.143097 0.0356308 0.140706 0.0349315 0.0356308 -0.0725476 0.0349315 -0.0716089 0.221375 0.174637 0.21796 0.171995 0.21796 0.171995 0.214738 0.169306 0.174637 0.12404 0.171995 0.12218 0.12404 0.0706588 0.12218 0.0696415 0.12218 0.0696415 0.12026 0.0686241 -0.0645464 -0.157233 -0.0637191 -0.154963 -0.157233 -0.24655 -0.154963 -0.242896 -0.0637191 -0.154963 -0.0628918 -0.152727 -0.154963 -0.242896 -0.152727 -0.239297 -0.0628918 -0.152727 -0.0620836 -0.150522 -0.152727 -0.239297 -0.150522 -0.235751 -0.0620836 -0.150522 -0.0612754 -0.148348 -0.150522 -0.235751 -0.148348 -0.232255 0.077356 0.13595 0.0761834 0.133849 0.0761834 0.133849 0.0750108 0.131841 0.133849 0.188641 0.131841 0.18571 0.188641 0.239151 0.18571 0.235458 0.243347 0.140706 0.239554 0.13836 0.335526 0.239554 0.330082 0.235635 0.239554 0.13836 0.235635 0.136053 0.18571 0.235458 0.182771 0.231838 0.182771 0.231838 0.180001 0.228278 0.330082 0.235635 0.324784 0.23179 0.235635 0.136053 0.23179 0.133759 0.324784 0.23179 0.31957 0.228013 0.23179 0.133759 0.228013 0.131497 0.180001 0.228278 0.177239 0.224798 0.177239 0.224798 0.174633 0.221371 0.0706553 0.124037 0.0696376 0.122176 0.124037 0.174633 0.122176 0.171991 0.0696376 0.122176 0.06862 0.120256 0.174633 0.221371 0.171991 0.217955 0.171991 0.217955 0.169301 0.214733 -0.0612754 -0.148348 -0.0604819 -0.146203 -0.148348 -0.232255 -0.146203 -0.22881 -0.0604819 -0.146203 -0.0596884 -0.144092 -0.146203 -0.22881 -0.144092 -0.225415 -0.0596884 -0.144092 -0.0589045 -0.142014 -0.144092 -0.225415 -0.142014 -0.222104 -0.0589045 -0.142014 -0.0581206 -0.139827 -0.055187 -0.132083 -0.0544363 -0.130029 -0.0544363 -0.130029 -0.0536829 -0.128205 -0.0463472 -0.110133 -0.0457589 -0.108364 -0.0457589 -0.108364 -0.0451705 -0.105838 -0.108364 -0.168819 -0.105838 -0.166506 0 0.113137 0 0.111368 0.113137 0.223824 0.111368 0.220325 0 0.111368 0 0.109627 0.111368 0.220325 0.109627 0.216881 -0.0507362 -0.120696 -0.0500374 -0.118901 -0.0500374 -0.118901 -0.0492497 -0.117158 -0.118901 -0.185392 -0.117158 -0.182539 -0.0492497 -0.117158 -0.0485342 -0.115294 -0.0485342 -0.115294 -0.0478186 -0.113548 -0.132072 -0.0551806 -0.130017 -0.0544288 -0.130017 -0.0544288 -0.128195 -0.0536753 0 0.109627 0 0.107914 0.109627 0.216881 0.107914 0.21349 0 0.107914 0 0.106226 0.107914 0.21349 0.106226 0.210153 0 0.106226 0 0.104566 0.106226 0.210153 0.104566 0.206867 0 0.104566 0 0.102931 0.104566 0.206867 0.102931 0.203633 -0.120693 -0.0507328 -0.1189 -0.0500355 -0.185391 -0.1189 -0.18254 -0.117159 -0.1189 -0.0500355 -0.117159 -0.0492502 -0.117159 -0.0492502 -0.115298 -0.0485313 -0.115298 -0.0485313 -0.113573 -0.0478125 0.12026 0.0686241 0.118481 0.0675718 0.118481 0.0675718 0.116713 0.0666121 0.212892 0.179242 0.209733 0.176605 0.179242 0.141686 0.176605 0.139656 0.209733 0.176605 0.206628 0.174019 0.176605 0.139656 0.174019 0.137625 -0.212417 -0.284243 -0.209252 -0.280076 -0.209252 -0.280076 -0.206161 -0.27581 -0.280076 -0.344871 -0.27581 -0.339561 0.206628 0.174019 0.203575 0.171474 0.174019 0.137625 0.171474 0.135669 0.203575 0.171474 0.200574 0.168973 0.171474 0.135669 0.168973 0.133714 -0.0478125 0.0186481 -0.047163 0.0184892 0.0186481 0.0851087 0.0184892 0.0836657 -0.047163 0.0184892 -0.0463317 0.018037 0.0184892 0.0836657 0.018037 0.0824058 0.06862 0.120256 0.0675672 0.118476 0.0675672 0.118476 0.066607 0.116708 0.165099 0.21454 0.162607 0.211256 0.214552 0.16512 0.211267 0.162622 -0.110078 -0.0463317 -0.108388 -0.0457532 -0.168843 -0.108388 -0.166515 -0.105845 -0.108388 -0.0457532 -0.105845 -0.0451747 0.141709 0.179319 0.139666 0.176571 0.139666 0.176571 0.137624 0.174015 0.140709 0.243349 0.138363 0.239556 0.138363 0.239556 0.136056 0.235637 0.239556 0.335529 0.235637 0.330084 0.137624 0.174015 0.135669 0.171472 0.135669 0.171472 0.133714 0.168973 0.0889232 0.130931 0.0875743 0.129007 0.0875743 0.129007 0.0862464 0.127078 0.129007 0.167592 0.127078 0.165033 0.130932 0.0889236 0.129007 0.0875746 0.167593 0.129007 0.165033 0.127078 0.129007 0.0875746 0.127078 0.0862466 0.136056 0.235637 0.133762 0.231793 0.235637 0.330084 0.231793 0.324787 0.133762 0.231793 0.1315 0.228016 0.231793 0.324787 0.228016 0.319574 0.140706 0.0349315 0.13836 0.0342195 0.0349315 -0.0716089 0.0342195 -0.0706759 0.13836 0.0342195 0.136053 0.0335142 0.0342195 -0.0706759 0.0335142 -0.0697583 0.136053 0.0335142 0.133759 0.032815 0.0335142 -0.0697583 0.032815 -0.0688553 0.133759 0.032815 0.131497 0.0321171 0.032815 -0.0688553 0.0321171 -0.0679666 -0.29301 -0.218828 -0.288494 -0.215571 -0.288494 -0.215571 -0.284328 -0.212378 -0.350158 -0.284328 -0.344774 -0.280018 -0.284328 -0.212378 -0.280018 -0.209242 -0.344774 -0.280018 -0.339537 -0.275777 -0.280018 -0.209242 -0.275777 -0.206141 0.31957 0.228013 0.314447 0.224309 0.228013 0.131497 0.224309 0.129252 0.314447 0.224309 0.309404 0.220668 0.224309 0.129252 0.220668 0.127159 0.309404 0.220668 0.304443 0.217082 0.220668 0.127159 0.217082 0.12501 0.304443 0.217082 0.299552 0.213543 0.217082 0.12501 0.213543 0.122861 0.299552 0.213543 0.294738 0.210059 0.213543 0.122861 0.210059 0.120803 0.294738 0.210059 0.290009 0.206641 0.210059 0.120803 0.206641 0.118746 0.290009 0.206641 0.285362 0.203278 0.206641 0.118746 0.203278 0.116763 0.285362 0.203278 0.280792 0.199977 0.203278 0.116763 0.199977 0.114781 -0.295069 -0.18735 -0.290682 -0.184641 -0.18735 -0.0755763 -0.184641 -0.0745901 -0.290682 -0.184641 -0.286395 -0.182021 -0.184641 -0.0745901 -0.182021 -0.0735984 0 0.102931 0 0.101321 0.102931 0.203633 0.101321 0.200449 0 0.101321 0 0.099736 0.101321 0.200449 0.099736 0.197313 -0.0735984 0.0363433 -0.0725455 0.0356327 0.0363433 0.145417 0.0356327 0.143098 -0.0725455 0.0356327 -0.0716063 0.0349339 0.0356327 0.143098 0.0349339 0.140709 0.280792 0.199977 0.276294 0.196728 0.199977 0.114781 0.196728 0.112869 0.276294 0.196728 0.271868 0.193536 0.196728 0.112869 0.193536 0.110958 0.271868 0.193536 0.267518 0.190396 0.193536 0.110958 0.190396 0.109114 0.267518 0.190396 0.263241 0.187314 0.190396 0.109114 0.187314 0.107269 0.263241 0.187314 0.259032 0.184282 0.187314 0.107269 0.184282 0.105504 0.259032 0.184282 0.254893 0.181295 0.184282 0.105504 0.181295 0.103739 0.254893 0.181295 0.250809 0.178372 0.181295 0.103739 0.178372 0.101953 0.250809 0.178372 0.246794 0.175404 0.1315 0.228016 0.129256 0.224313 0.228016 0.319574 0.224313 0.31445 0.129256 0.224313 0.127163 0.220672 0.224313 0.31445 0.220672 0.309408 0.127163 0.220672 0.125014 0.217086 0.220672 0.309408 0.217086 0.304447 0.125014 0.217086 0.122866 0.213547 0.217086 0.304447 0.213547 0.299556 0.122866 0.213547 0.120809 0.210064 0.213547 0.299556 0.210064 0.294742 0.120809 0.210064 0.118752 0.206646 0.210064 0.294742 0.206646 0.290014 0.118752 0.206646 0.116769 0.203284 0.206646 0.290014 0.203284 0.285366 0.116769 0.203284 0.114787 0.199982 0.203284 0.285366 0.199982 0.280796 0.197314 0.0997363 0.194224 0.0981739 0.0997363 2.49994e-16 0.0981739 2.46118e-16 0.194224 0.0981739 0.191177 0.0966321 0.0981739 2.46118e-16 0.0966321 2.42302e-16 0.191177 0.0966321 0.188143 0.0951293 0.0966321 2.42302e-16 0.0951293 2.38545e-16 0.188143 0.0951293 0.185316 0.0936525 0.0951293 2.38545e-16 0.0936525 2.34847e-16 0.114787 0.199982 0.112873 0.196731 0.199982 0.280796 0.196731 0.276297 0.112873 0.196731 0.110959 0.193539 0.196731 0.276297 0.193539 0.271871 0.110959 0.193539 0.109113 0.190397 0.193539 0.271871 0.190397 0.26752 0.109113 0.190397 0.107267 0.187314 0.190397 0.26752 0.187314 0.263242 0.107267 0.187314 0.105502 0.184282 0.187314 0.263242 0.184282 0.259033 0.105502 0.184282 0.103737 0.181296 0.184282 0.259033 0.181296 0.254894 0.103737 0.181296 0.101954 0.178373 0.181296 0.254894 0.178373 0.250811 0.178373 0.250811 0.175406 0.246797 0.246794 0.175404 0.242849 0.172601 0.242849 0.172601 0.238985 0.169829 0.238985 0.169829 0.235185 0.167105 0.235185 0.167105 0.23147 0.164416 -0.0716063 0.0349339 -0.0706727 0.0342223 0.0349339 0.140709 0.0342223 0.138363 -0.0706727 0.0342223 -0.0697547 0.0335174 0.0342223 0.138363 0.0335174 0.136056 -0.0697547 0.0335174 -0.0688515 0.0328184 0.0335174 0.136056 0.0328184 0.133762 -0.0688515 0.0328184 -0.067963 0.0321206 0.0328184 0.133762 0.0321206 0.1315 -0.182539 -0.244053 -0.179671 -0.240264 -0.244053 -0.300356 -0.240264 -0.295672 -0.179671 -0.240264 -0.176911 -0.236556 -0.240264 -0.295672 -0.236556 -0.291114 -0.176911 -0.236556 -0.174266 -0.232917 -0.236556 -0.291114 -0.232917 -0.286628 -0.174266 -0.232917 -0.171545 -0.229326 -0.232917 -0.286628 -0.229326 -0.282213 -0.171545 -0.229326 -0.168819 -0.225815 -0.229326 -0.282213 -0.225815 -0.277864 -0.168819 -0.225815 -0.166506 -0.222354 -0.225815 -0.277864 -0.222354 -0.273576 -0.166506 -0.222354 -0.163883 -0.218934 -0.222354 -0.273576 -0.218934 -0.269337 -0.163883 -0.218934 -0.161259 -0.215522 -0.218934 -0.269337 -0.215522 -0.265154 -0.206161 -0.27581 -0.202969 -0.27165 -0.27581 -0.339561 -0.27165 -0.334405 -0.202969 -0.27165 -0.200032 -0.267634 -0.27165 -0.334405 -0.267634 -0.329366 -0.339537 -0.275777 -0.334389 -0.271632 -0.275777 -0.206141 -0.271632 -0.202953 -0.334389 -0.271632 -0.329354 -0.267621 -0.271632 -0.202953 -0.267621 -0.20002 0.175406 0.246797 0.172604 0.242852 0.172604 0.242852 0.169833 0.238989 0.169833 0.238989 0.167109 0.235189 0.167109 0.235189 0.16442 0.231474 0 0.0825714 0 0.0812497 0.0825714 0.16336 0.0812497 0.160809 0 0.0812497 0 0.0799562 0 0.0799562 0 0.0786564 0.0799562 0.158272 0.0786564 0.155715 0 0.0786564 0 0.0767475 0.0786564 0.155715 0.0767475 0.153495 0.158272 0.233152 0.155715 0.229496 0.233152 0.302931 0.229496 0.298186 0.155715 0.229496 0.153495 0.225922 0.229496 0.298186 0.225922 0.293534 -0.300354 -0.244052 -0.295669 -0.240266 -0.244052 -0.18254 -0.240266 -0.179676 -0.295669 -0.240266 -0.291108 -0.236549 -0.240266 -0.179676 -0.236549 -0.176937 -0.291108 -0.236549 -0.286619 -0.2329 -0.236549 -0.176937 -0.2329 -0.174209 -0.286619 -0.2329 -0.282205 -0.22931 -0.2329 -0.174209 -0.22931 -0.17149 -0.282205 -0.22931 -0.27786 -0.225809 -0.22931 -0.17149 -0.225809 -0.168843 -0.27786 -0.225809 -0.273575 -0.222358 -0.225809 -0.168843 -0.222358 -0.166515 -0.273575 -0.222358 -0.269338 -0.218937 -0.222358 -0.166515 -0.218937 -0.163888 -0.269338 -0.218937 -0.265156 -0.215525 -0.218937 -0.163888 -0.215525 -0.161262 0.131497 0.0321171 0.129252 0.0314137 0.0321171 -0.0679666 0.0314137 -0.0671015 0.129252 0.0314137 0.127159 0.0304743 0.0314137 -0.0671015 0.0304743 -0.0662102 -0.0755763 0.0378337 -0.0745901 0.0370696 0.0378337 0.150425 0.0370696 0.147914 -0.0745901 0.0370696 -0.0735984 0.0363433 0.0370696 0.147914 0.0363433 0.145417 0.163361 0.0825721 0.16081 0.0812504 0.0825721 2.07252e-16 0.0812504 2.04039e-16 0.0812504 2.04039e-16 0.079957 2.00875e-16 0.302934 0.233154 0.298189 0.229499 0.233154 0.158274 0.229499 0.155717 0.298189 0.229499 0.293538 0.225926 0.229499 0.155717 0.225926 0.153497 0.158274 0.079957 0.155717 0.0786574 0.079957 2.00875e-16 0.0786574 1.97761e-16 0.155717 0.0786574 0.153497 0.0767486 0.0786574 1.97761e-16 0.0767486 1.94695e-16 -0.067963 0.0321206 -0.0670982 0.0314171 0.0321206 0.1315 0.0314171 0.129256 -0.0670982 0.0314171 -0.0662073 0.0304776 0.0314171 0.129256 0.0304776 0.127163 0.223824 0.113137 0.220325 0.111368 0.113137 2.8328e-16 0.111368 2.78888e-16 0.220325 0.111368 0.216881 0.109627 0.111368 2.78888e-16 0.109627 2.74564e-16 0.216881 0.109627 0.213491 0.107914 0.109627 2.74564e-16 0.107914 2.70307e-16 0.213491 0.107914 0.210153 0.106227 0.107914 2.70307e-16 0.106227 2.66117e-16 0.210153 0.106227 0.206867 0.104566 0.106227 2.66117e-16 0.104566 2.61991e-16 0.206867 0.104566 0.203634 0.10