# vtk DataFile Version 3.0
#This file was generated by the deal.II library on 2018/12/4 at 0:47:16
ASCII
DATASET UNSTRUCTURED_GRID

POINTS 22816 double
0.3125 0.5625 0
0.375 0.5625 0
0.3125 0.625 0
0.375 0.625 0
0.625 0.5625 0
0.6875 0.5625 0
0.625 0.625 0
0.6875 0.625 0
0.3125 0.8125 0
0.375 0.8125 0
0.3125 0.875 0
0.375 0.875 0
0.3125 0.875 0
0.375 0.875 0
0.3125 0.9375 0
0.375 0.9375 0
0.625 0.8125 0
0.6875 0.8125 0
0.625 0.875 0
0.6875 0.875 0
0.625 0.875 0
0.6875 0.875 0
0.625 0.9375 0
0.6875 0.9375 0
0.3125 0 0
0.34375 0 0
0.3125 0.03125 0
0.34375 0.03125 0
0.34375 0 0
0.375 0 0
0.34375 0.03125 0
0.375 0.03125 0
0.3125 0.03125 0
0.34375 0.03125 0
0.3125 0.0625 0
0.34375 0.0625 0
0.28125 0.0625 0
0.3125 0.0625 0
0.28125 0.09375 0
0.3125 0.09375 0
0.28125 0.09375 0
0.3125 0.09375 0
0.28125 0.125 0
0.3125 0.125 0
0.375 0.34375 0
0.40625 0.34375 0
0.375 0.375 0
0.40625 0.375 0
0 0.0625 0
0.03125 0.0625 0
0 0.09375 0
0.03125 0.09375 0
0 0.09375 0
0.03125 0.09375 0
0 0.125 0
0.03125 0.125 0
0.6875 0.0625 0
0.71875 0.0625 0
0.6875 0.09375 0
0.71875 0.09375 0
0.6875 0.09375 0
0.71875 0.09375 0
0.6875 0.125 0
0.71875 0.125 0
0.3125 0.0625 0
0.34375 0.0625 0
0.3125 0.09375 0
0.34375 0.09375 0
0.3125 0.09375 0
0.34375 0.09375 0
0.3125 0.125 0
0.34375 0.125 0
0.59375 0.3125 0
0.625 0.3125 0
0.59375 0.34375 0
0.625 0.34375 0
0.59375 0.34375 0
0.625 0.34375 0
0.59375 0.375 0
0.625 0.375 0
0.25 0.125 0
0.28125 0.125 0
0.25 0.15625 0
0.28125 0.15625 0
0.28125 0.125 0
0.3125 0.125 0
0.28125 0.15625 0
0.3125 0.15625 0
0.28125 0.15625 0
0.3125 0.15625 0
0.28125 0.1875 0
0.3125 0.1875 0
0.28125 0.1875 0
0.3125 0.1875 0
0.28125 0.21875 0
0.3125 0.21875 0
0.28125 0.21875 0
0.3125 0.21875 0
0.28125 0.25 0
0.3125 0.25 0
0.625 0 0
0.65625 0 0
0.625 0.03125 0
0.65625 0.03125 0
0.65625 0 0
0.6875 0 0
0.65625 0.03125 0
0.6875 0.03125 0
0.65625 0.03125 0
0.6875 0.03125 0
0.65625 0.0625 0
0.6875 0.0625 0
0.28125 0.25 0
0.3125 0.25 0
0.28125 0.28125 0
0.3125 0.28125 0
0.28125 0.28125 0
0.3125 0.28125 0
0.28125 0.3125 0
0.3125 0.3125 0
0.28125 0.3125 0
0.3125 0.3125 0
0.28125 0.34375 0
0.3125 0.34375 0
0.28125 0.34375 0
0.3125 0.34375 0
0.28125 0.375 0
0.3125 0.375 0
0.6875 0.125 0
0.71875 0.125 0
0.6875 0.15625 0
0.71875 0.15625 0
0.71875 0.125 0
0.75 0.125 0
0.71875 0.15625 0
0.75 0.15625 0
0.6875 0.15625 0
0.71875 0.15625 0
0.6875 0.1875 0
0.71875 0.1875 0
0.6875 0.1875 0
0.71875 0.1875 0
0.6875 0.21875 0
0.71875 0.21875 0
0.6875 0.21875 0
0.71875 0.21875 0
0.6875 0.25 0
0.71875 0.25 0
0.96875 0.0625 0
1 0.0625 0
0.96875 0.09375 0
1 0.09375 0
0.96875 0.09375 0
1 0.09375 0
0.96875 0.125 0
1 0.125 0
0.6875 0.25 0
0.71875 0.25 0
0.6875 0.28125 0
0.71875 0.28125 0
0.6875 0.28125 0
0.71875 0.28125 0
0.6875 0.3125 0
0.71875 0.3125 0
0.6875 0.3125 0
0.71875 0.3125 0
0.6875 0.34375 0
0.71875 0.34375 0
0.6875 0.34375 0
0.71875 0.34375 0
0.6875 0.375 0
0.71875 0.375 0
0.28125 0.375 0
0.3125 0.375 0
0.28125 0.40625 0
0.3125 0.40625 0
0.28125 0.40625 0
0.3125 0.40625 0
0.28125 0.4375 0
0.3125 0.4375 0
0.65625 0.0625 0
0.6875 0.0625 0
0.65625 0.09375 0
0.6875 0.09375 0
0.65625 0.09375 0
0.6875 0.09375 0
0.65625 0.125 0
0.6875 0.125 0
0.375 0.5 0
0.40625 0.5 0
0.375 0.53125 0
0.40625 0.53125 0
0.375 0.53125 0
0.40625 0.53125 0
0.375 0.5625 0
0.40625 0.5625 0
0.375 0.5625 0
0.40625 0.5625 0
0.375 0.59375 0
0.40625 0.59375 0
0.375 0.59375 0
0.40625 0.59375 0
0.375 0.625 0
0.40625 0.625 0
0.375 0.375 0
0.40625 0.375 0
0.375 0.40625 0
0.40625 0.40625 0
0.59375 0.375 0
0.625 0.375 0
0.59375 0.40625 0
0.625 0.40625 0
0.6875 0.375 0
0.71875 0.375 0
0.6875 0.40625 0
0.71875 0.40625 0
0.6875 0.40625 0
0.71875 0.40625 0
0.6875 0.4375 0
0.71875 0.4375 0
0 0.3125 0
0.03125 0.3125 0
0 0.34375 0
0.03125 0.34375 0
0 0.34375 0
0.03125 0.34375 0
0 0.375 0
0.03125 0.375 0
0.03125 0.34375 0
0.0625 0.34375 0
0.03125 0.375 0
0.0625 0.375 0
0.59375 0.5 0
0.625 0.5 0
0.59375 0.53125 0
0.625 0.53125 0
0.59375 0.53125 0
0.625 0.53125 0
0.59375 0.5625 0
0.625 0.5625 0
0.59375 0.5625 0
0.625 0.5625 0
0.59375 0.59375 0
0.625 0.59375 0
0.59375 0.59375 0
0.625 0.59375 0
0.59375 0.625 0
0.625 0.625 0
0.3125 0.125 0
0.34375 0.125 0
0.3125 0.15625 0
0.34375 0.15625 0
0.3125 0.15625 0
0.34375 0.15625 0
0.3125 0.1875 0
0.34375 0.1875 0
0.96875 0.3125 0
1 0.3125 0
0.96875 0.34375 0
1 0.34375 0
0.9375 0.34375 0
0.96875 0.34375 0
0.9375 0.375 0
0.96875 0.375 0
0.96875 0.34375 0
1 0.34375 0
0.96875 0.375 0
1 0.375 0
0.65625 0.125 0
0.6875 0.125 0
0.65625 0.15625 0
0.6875 0.15625 0
0.65625 0.15625 0
0.6875 0.15625 0
0.65625 0.1875 0
0.6875 0.1875 0
0.65625 0.1875 0
0.6875 0.1875 0
0.65625 0.21875 0
0.6875 0.21875 0
0.65625 0.21875 0
0.6875 0.21875 0
0.65625 0.25 0
0.6875 0.25 0
0.65625 0.25 0
0.6875 0.25 0
0.65625 0.28125 0
0.6875 0.28125 0
0.625 0.28125 0
0.65625 0.28125 0
0.625 0.3125 0
0.65625 0.3125 0
0.65625 0.28125 0
0.6875 0.28125 0
0.65625 0.3125 0
0.6875 0.3125 0
0 0.625 0
0.03125 0.625 0
0 0.65625 0
0.03125 0.65625 0
0.03125 0.625 0
0.0625 0.625 0
0.03125 0.65625 0
0.0625 0.65625 0
0 0.65625 0
0.03125 0.65625 0
0 0.6875 0
0.03125 0.6875 0
0.03125 0.65625 0
0.0625 0.65625 0
0.03125 0.6875 0
0.0625 0.6875 0
0 0.1875 0
0.03125 0.1875 0
0 0.21875 0
0.03125 0.21875 0
0.03125 0.1875 0
0.0625 0.1875 0
0.03125 0.21875 0
0.0625 0.21875 0
0 0.21875 0
0.03125 0.21875 0
0 0.25 0
0.03125 0.25 0
0.03125 0.21875 0
0.0625 0.21875 0
0.03125 0.25 0
0.0625 0.25 0
0.0625 0.71875 0
0.09375 0.71875 0
0.0625 0.75 0
0.09375 0.75 0
0.96875 0.625 0
1 0.625 0
0.96875 0.65625 0
1 0.65625 0
0.9375 0.65625 0
0.96875 0.65625 0
0.9375 0.6875 0
0.96875 0.6875 0
0.96875 0.65625 0
1 0.65625 0
0.96875 0.6875 0
1 0.6875 0
0.90625 0.71875 0
0.9375 0.71875 0
0.90625 0.75 0
0.9375 0.75 0
0.9375 0.1875 0
0.96875 0.1875 0
0.9375 0.21875 0
0.96875 0.21875 0
0.96875 0.1875 0
1 0.1875 0
0.96875 0.21875 0
1 0.21875 0
0.9375 0.21875 0
0.96875 0.21875 0
0.9375 0.25 0
0.96875 0.25 0
0.96875 0.21875 0
1 0.21875 0
0.96875 0.25 0
1 0.25 0
0 0.4375 0
0.03125 0.4375 0
0 0.46875 0
0.03125 0.46875 0
0.03125 0.4375 0
0.0625 0.4375 0
0.03125 0.46875 0
0.0625 0.46875 0
0 0.46875 0
0.03125 0.46875 0
0 0.5 0
0.03125 0.5 0
0.9375 0.4375 0
0.96875 0.4375 0
0.9375 0.46875 0
0.96875 0.46875 0
0.96875 0.4375 0
1 0.4375 0
0.96875 0.46875 0
1 0.46875 0
0.96875 0.46875 0
1 0.46875 0
0.96875 0.5 0
1 0.5 0
0 0.5625 0
0.03125 0.5625 0
0 0.59375 0
0.03125 0.59375 0
0 0.59375 0
0.03125 0.59375 0
0 0.625 0
0.03125 0.625 0
0.96875 0.5625 0
1 0.5625 0
0.96875 0.59375 0
1 0.59375 0
0.96875 0.59375 0
1 0.59375 0
0.96875 0.625 0
1 0.625 0
0.6875 0.875 0
0.71875 0.875 0
0.6875 0.90625 0
0.71875 0.90625 0
0.71875 0.875 0
0.75 0.875 0
0.71875 0.90625 0
0.75 0.90625 0
0.6875 0.90625 0
0.71875 0.90625 0
0.6875 0.9375 0
0.71875 0.9375 0
0.71875 0.90625 0
0.75 0.90625 0
0.71875 0.9375 0
0.75 0.9375 0
0 0.25 0
0.03125 0.25 0
0 0.28125 0
0.03125 0.28125 0
0 0.28125 0
0.03125 0.28125 0
0 0.3125 0
0.03125 0.3125 0
0.3125 0.1875 0
0.34375 0.1875 0
0.3125 0.21875 0
0.34375 0.21875 0
0.3125 0.21875 0
0.34375 0.21875 0
0.3125 0.25 0
0.34375 0.25 0
0.0625 0.875 0
0.09375 0.875 0
0.0625 0.90625 0
0.09375 0.90625 0
0.0625 0.90625 0
0.09375 0.90625 0
0.0625 0.9375 0
0.09375 0.9375 0
0.96875 0.25 0
1 0.25 0
0.96875 0.28125 0
1 0.28125 0
0.96875 0.28125 0
1 0.28125 0
0.96875 0.3125 0
1 0.3125 0
0.0625 0.9375 0
0.09375 0.9375 0
0.0625 0.96875 0
0.09375 0.96875 0
0.0625 0.96875 0
0.09375 0.96875 0
0.0625 1 0
0.09375 1 0
0.09375 0.96875 0
0.125 0.96875 0
0.09375 1 0
0.125 1 0
0.75 0.90625 0
0.78125 0.90625 0
0.75 0.9375 0
0.78125 0.9375 0
0.75 0.9375 0
0.78125 0.9375 0
0.75 0.96875 0
0.78125 0.96875 0
0.75 0.96875 0
0.78125 0.96875 0
0.75 1 0
0.78125 1 0
0.90625 0.875 0
0.9375 0.875 0
0.90625 0.90625 0
0.9375 0.90625 0
0.90625 0.90625 0
0.9375 0.90625 0
0.90625 0.9375 0
0.9375 0.9375 0
0.3125 0.25 0
0.34375 0.25 0
0.3125 0.28125 0
0.34375 0.28125 0
0.3125 0.28125 0
0.34375 0.28125 0
0.3125 0.3125 0
0.34375 0.3125 0
0.90625 0.9375 0
0.9375 0.9375 0
0.90625 0.96875 0
0.9375 0.96875 0
0.875 0.96875 0
0.90625 0.96875 0
0.875 1 0
0.90625 1 0
0.90625 0.96875 0
0.9375 0.96875 0
0.90625 1 0
0.9375 1 0
0.3125 0.3125 0
0.34375 0.3125 0
0.3125 0.34375 0
0.34375 0.34375 0
0.34375 0.3125 0
0.375 0.3125 0
0.34375 0.34375 0
0.375 0.34375 0
0.3125 0.34375 0
0.34375 0.34375 0
0.3125 0.375 0
0.34375 0.375 0
0.34375 0.34375 0
0.375 0.34375 0
0.34375 0.375 0
0.375 0.375 0
0.625 0.3125 0
0.65625 0.3125 0
0.625 0.34375 0
0.65625 0.34375 0
0.65625 0.3125 0
0.6875 0.3125 0
0.65625 0.34375 0
0.6875 0.34375 0
0.625 0.34375 0
0.65625 0.34375 0
0.625 0.375 0
0.65625 0.375 0
0.65625 0.34375 0
0.6875 0.34375 0
0.65625 0.375 0
0.6875 0.375 0
0.3125 0.375 0
0.34375 0.375 0
0.3125 0.40625 0
0.34375 0.40625 0
0.3125 0.40625 0
0.34375 0.40625 0
0.3125 0.4375 0
0.34375 0.4375 0
0.28125 0.4375 0
0.3125 0.4375 0
0.28125 0.46875 0
0.3125 0.46875 0
0.28125 0.46875 0
0.3125 0.46875 0
0.28125 0.5 0
0.3125 0.5 0
0.3125 0.4375 0
0.34375 0.4375 0
0.3125 0.46875 0
0.34375 0.46875 0
0.3125 0.46875 0
0.34375 0.46875 0
0.3125 0.5 0
0.34375 0.5 0
0.3125 0.5 0
0.34375 0.5 0
0.3125 0.53125 0
0.34375 0.53125 0
0.3125 0.53125 0
0.34375 0.53125 0
0.3125 0.5625 0
0.34375 0.5625 0
0.34375 0.53125 0
0.375 0.53125 0
0.34375 0.5625 0
0.375 0.5625 0
0.25 0.5625 0
0.28125 0.5625 0
0.25 0.59375 0
0.28125 0.59375 0
0.28125 0.5625 0
0.3125 0.5625 0
0.28125 0.59375 0
0.3125 0.59375 0
0.25 0.59375 0
0.28125 0.59375 0
0.25 0.625 0
0.28125 0.625 0
0.28125 0.59375 0
0.3125 0.59375 0
0.28125 0.625 0
0.3125 0.625 0
0.375 0.625 0
0.40625 0.625 0
0.375 0.65625 0
0.40625 0.65625 0
0.375 0.65625 0
0.40625 0.65625 0
0.375 0.6875 0
0.40625 0.6875 0
0.375 0.6875 0
0.40625 0.6875 0
0.375 0.71875 0
0.40625 0.71875 0
0.375 0.71875 0
0.40625 0.71875 0
0.375 0.75 0
0.40625 0.75 0
0 0.75 0
0.03125 0.75 0
0 0.78125 0
0.03125 0.78125 0
0.03125 0.75 0
0.0625 0.75 0
0.03125 0.78125 0
0.0625 0.78125 0
0 0.78125 0
0.03125 0.78125 0
0 0.8125 0
0.03125 0.8125 0
0.03125 0.78125 0
0.0625 0.78125 0
0.03125 0.8125 0
0.0625 0.8125 0
0.0625 0.75 0
0.09375 0.75 0
[...]
POINT_DATA 22816
SCALARS U double 1
LOOKUP_TABLE default
0.0847493 -0.188513 0.0795209 -0.177143 -0.18851 0.0847602 -0.177152 0.0795104 0.0674528 -0.145273 0.0645639 -0.135308 0.0645639 -0.135308 0.0618502 -0.126126 -0.145281 0.0674263 -0.135333 0.0645567 -0.135333 0.0645567 -0.126234 0.0618723 0.162303 -0.081544 0.156356 -0.0796956 -0.081544 -0.318368 -0.0796956 -0.30902 0.156356 -0.0796956 0.151311 -0.0773922 0.367169 0.151311 0.354509 0.145913 0.354509 0.145913 0.343697 0.140705 -0.23153 -0.37985 -0.224913 -0.368247 0 0.226404 0 0.219136 0 0.219136 0 0.212297 0.15132 0.367171 0.145917 0.354508 0.145917 0.354508 0.140696 0.343689 0.151311 -0.0773922 0.145913 -0.0757051 0.145913 -0.0757051 0.140705 -0.0740446 -0.391219 -0.23823 -0.379452 -0.231344 -0.379452 -0.231344 -0.368191 -0.22484 0.516745 0.343697 0.500013 0.332318 0.343697 0.140705 0.332318 0.135637 0.332318 0.135637 0.320444 0.130672 0.320444 0.130672 0.310074 0.125879 0.310074 0.125879 0.299912 0.121384 -0.318368 -0.081544 -0.308999 -0.0796825 -0.081544 0.162303 -0.0796825 0.156362 -0.0796825 0.156362 -0.0773692 0.15132 0.299912 0.121384 0.29005 0.117021 0.29005 0.117021 0.280486 0.112784 0.280486 0.112784 0.271192 0.108643 0.271192 0.108643 0.262244 0.104752 0.140696 0.343689 0.135613 0.332303 0.343689 0.516741 0.332303 0.500007 0.135613 0.332303 0.130642 0.320428 0.130642 0.320428 0.125865 0.31006 0.125865 0.31006 0.121346 0.299909 0.226406 2.8713e-16 0.219138 2.78296e-16 0.219138 2.78296e-16 0.212299 2.69734e-16 0.121346 0.299909 0.117016 0.290057 0.117016 0.290057 0.112778 0.280504 0.112778 0.280504 0.108673 0.271212 0.108673 0.271212 0.10477 0.26226 0.262244 0.104752 0.253638 0.101026 0.253638 0.101026 0.245391 0.0974843 -0.0773692 0.15132 -0.0756824 0.145917 -0.0756824 0.145917 -0.0740404 0.140696 -0.199915 -0.326571 -0.193898 -0.316587 -0.193898 -0.316587 -0.188513 -0.307053 -0.188513 -0.307053 -0.182828 -0.297702 -0.182828 -0.297702 -0.177143 -0.288482 -0.224913 -0.368247 -0.218383 -0.357508 -0.368191 -0.22484 -0.357482 -0.218358 0.10477 0.26226 0.101043 0.253647 0.101043 0.253647 0.097502 0.245403 0 0.174911 0 0.169943 0 0.169943 0 0.164455 0.169943 0.324999 0.164455 0.314454 -0.326566 -0.199905 -0.316583 -0.193891 -0.316583 -0.193891 -0.307053 -0.18851 -0.307053 -0.18851 -0.297706 -0.182831 -0.297706 -0.182831 -0.28849 -0.177152 0.140705 -0.0740446 0.135637 -0.0724515 0.135637 -0.0724515 0.130672 -0.0709166 0.174922 2.23617e-16 0.169958 2.16737e-16 0.325026 0.169958 0.314491 0.164474 0.169958 2.16737e-16 0.164474 2.10069e-16 -0.0740404 0.140696 -0.0724772 0.135613 -0.0724772 0.135613 -0.0709557 0.130642 -0.0709557 0.130642 -0.0694291 0.125865 -0.0694291 0.125865 -0.0678027 0.121346 -0.0678027 0.121346 -0.0666908 0.117016 -0.244664 -0.0666908 -0.23823 -0.0651783 -0.0666908 0.117016 -0.0651783 0.112778 0 0.12785 0 0.123803 0.12785 0.244697 0.123803 0.236406 0 0.123803 0 0.120007 0.123803 0.236406 0.120007 0.22942 0 0.199601 0 0.193033 0.199601 0.3816 0.193033 0.369243 0 0.193033 0 0.187011 0.193033 0.369243 0.187011 0.357767 0.222526 0.309571 0.215985 0.300042 0.127355 1.63602e-16 0.123849 1.58568e-16 0.236764 0.123849 0.229427 0.120039 0.123849 1.58568e-16 0.120039 1.5369e-16 0.30956 0.222513 0.300026 0.215969 0.381608 0.199605 0.369253 0.193038 0.199605 2.53391e-16 0.193038 2.45595e-16 0.369253 0.193038 0.35778 0.187018 0.193038 2.45595e-16 0.187018 2.38039e-16 0 0.154243 0 0.149404 0.154243 0.294924 0.149404 0.285959 0 0.149404 0 0.144806 0.294966 0.154254 0.285988 0.149423 0.154254 1.97341e-16 0.149423 1.9127e-16 0.149423 1.9127e-16 0.144779 1.85385e-16 0 0.136161 0 0.131414 0 0.131414 0 0.12785 0.136084 1.74153e-16 0.131433 1.68795e-16 0.131433 1.68795e-16 0.127355 1.63602e-16 0.0645567 0.160142 0.0632145 0.15594 0.160142 0.241283 0.15594 0.235185 0.0632145 0.15594 0.0618723 0.152197 0.15594 0.235185 0.152197 0.228655 0 0.187011 0 0.180588 0 0.180588 0 0.174911 0.130672 -0.0709166 0.125879 -0.0694088 0.125879 -0.0694088 0.121384 -0.0679077 0.191305 0.265765 0.185311 0.257867 0.185311 0.257867 0.17996 0.250193 0.187018 2.38039e-16 0.180596 2.30715e-16 0.180596 2.30715e-16 0.174922 2.23617e-16 0.17996 0.250193 0.175102 0.243645 0.175102 0.243645 0.170033 0.236581 0.243645 0.291081 0.236581 0.282755 0.235185 0.29375 0.228655 0.285165 0.228655 0.285165 0.222041 0.277277 0.222041 0.277277 0.216412 0.269914 0.265755 0.191297 0.25786 0.185304 0.25786 0.185304 0.250188 0.179955 0.121384 -0.0679077 0.117021 -0.0663278 0.117021 -0.0663278 0.112784 -0.0652637 0.250188 0.179955 0.243643 0.175099 0.291083 0.243643 0.282755 0.236581 0.243643 0.175099 0.236581 0.170033 0.112784 -0.0652637 0.108643 -0.0638138 -0.0652637 -0.237783 -0.0638138 -0.23153 0.108643 -0.0638138 0.104752 -0.0625401 -0.0638138 -0.23153 -0.0625401 -0.224913 -0.23823 -0.0651783 -0.231344 -0.0638127 -0.0651783 0.112778 -0.0638127 0.108673 -0.231344 -0.0638127 -0.22484 -0.0625025 -0.0638127 0.108673 -0.0625025 0.10477 0.104752 -0.0625401 0.101026 -0.060782 0.101026 -0.060782 0.0974843 -0.0593649 0.245391 0.0974843 0.237428 0.094109 0.237428 0.094109 0.229997 0.0909683 0.0974843 -0.0593649 0.094109 -0.0579102 0.094109 -0.0579102 0.0909683 -0.0564287 0.0909683 -0.0564287 0.0876496 -0.0550894 0.0876496 -0.0550894 0.0847493 -0.0518818 -0.0550894 -0.193898 -0.0518818 -0.188513 0.327177 0.216138 0.317557 0.20904 0.216138 0.0847493 0.20904 0.0821351 0.317557 0.20904 0.307593 0.202956 0.20904 0.0821351 0.202956 0.0795209 -0.177143 -0.288482 -0.171149 -0.27944 -0.171149 -0.27944 -0.165823 -0.270608 -0.165823 -0.270608 -0.160533 -0.261853 -0.160533 -0.261853 -0.155269 -0.254082 0 0.112943 0 0.109437 0.112943 0.215985 0.109437 0.209361 0 0.109437 0 0.106154 0.109437 0.209361 0.106154 0.203088 0.215985 0.300042 0.209361 0.291022 0.209361 0.291022 0.203088 0.282344 0 0.106154 0 0.103013 0 0.103013 0 0.100036 0.103013 0.197065 0.100036 0.191305 0.203088 0.282344 0.197065 0.273952 0.197065 0.273952 0.191305 0.265765 -0.0625025 0.10477 -0.0607596 0.101043 -0.0607596 0.101043 -0.059348 0.097502 -0.059348 0.097502 -0.0578935 0.0941312 -0.0578935 0.0941312 -0.0564122 0.0909932 0.097502 0.245403 0.0941312 0.237452 0.0941312 0.237452 0.0909932 0.230032 0 0.164455 0 0.159223 0.164455 0.314454 0.159223 0.304479 0 0.159223 0 0.154243 0.159223 0.304479 0.154243 0.294924 -0.0564122 0.0909932 -0.0550764 0.0876707 -0.193891 -0.0550764 -0.18851 -0.051875 -0.0550764 0.0876707 -0.051875 0.0847602 0.0847602 0.216151 0.0821353 0.209038 0.216151 0.327176 0.209038 0.317546 0.0821353 0.209038 0.0795104 0.202944 0.209038 0.317546 0.202944 0.307577 -0.28849 -0.177152 -0.279452 -0.171163 -0.279452 -0.171163 -0.270623 -0.165842 -0.270623 -0.165842 -0.261869 -0.160554 -0.261869 -0.160554 -0.254097 -0.15529 0.300026 0.215969 0.291006 0.209348 0.291006 0.209348 0.28233 0.203077 0.215969 0.112933 0.209348 0.109429 0.112933 1.44378e-16 0.109429 1.39936e-16 0.209348 0.109429 0.203077 0.106148 0.109429 1.39936e-16 0.106148 1.35631e-16 0.28233 0.203077 0.273939 0.197055 0.273939 0.197055 0.265755 0.191297 0.106148 1.35631e-16 0.103008 1.31458e-16 0.197055 0.103008 0.191297 0.100032 0.103008 1.31458e-16 0.100032 1.27413e-16 0.314491 0.164474 0.304527 0.159241 0.164474 2.10069e-16 0.159241 2.03606e-16 0.304527 0.159241 0.294966 0.154254 0.159241 2.03606e-16 0.154254 1.97341e-16 0 0.144806 0 0.140367 0.144806 0.276887 0.140367 0.268779 0 0.140367 0 0.136161 0.140367 0.268779 0.136161 0.260414 0.268779 0.373794 0.260414 0.361841 0.260414 0.361841 0.251807 0.350633 0.251807 0.350633 0.244697 0.340046 0.398002 0.317557 0.385244 0.307593 0.385244 0.307593 0.373313 0.297497 0.373313 0.297497 0.361823 0.288575 0.361823 0.288575 0.350947 0.279828 0.350947 0.279828 0.34078 0.272217 0.272217 0.179505 0.263431 0.174368 0.263431 0.174368 0.255904 0.169302 0.174368 0.0695714 0.169302 0.0674528 0.0709276 -0.0437488 0.0695714 -0.0418837 -0.0437488 -0.155269 -0.0418837 -0.15002 0.0695714 -0.0418837 0.0674528 -0.03891 -0.0418837 -0.15002 -0.03891 -0.145273 0.255904 0.169302 0.248523 0.164579 0.169302 0.0674528 0.164579 0.0660083 0.248523 0.164579 0.24146 0.160111 0.164579 0.0660083 0.160111 0.0645639 -0.155269 -0.254082 -0.15002 -0.245769 -0.254082 -0.330888 -0.245769 -0.320749 -0.15002 -0.245769 -0.145273 -0.237808 -0.245769 -0.320749 -0.237808 -0.310396 -0.320749 -0.368846 -0.310396 -0.356618 -0.368846 -0.38512 -0.356618 -0.372511 -0.145273 -0.237808 -0.140291 -0.230029 -0.237808 -0.310396 -0.230029 -0.300334 -0.140291 -0.230029 -0.135308 -0.222444 -0.230029 -0.300334 -0.222444 -0.290602 -0.310396 -0.356618 -0.300334 -0.345104 -0.356618 -0.372511 -0.345104 -0.360467 -0.300334 -0.345104 -0.290602 -0.333997 -0.345104 -0.360467 -0.333997 -0.34889 0.24146 0.160111 0.234736 0.155877 0.160111 0.0645639 0.155877 0.0632071 0.234736 0.155877 0.228448 0.152078 0.155877 0.0632071 0.152078 0.0618502 0.0618502 -0.0321378 0.060768 -0.0315436 -0.0321378 -0.126126 -0.0315436 -0.121353 0.060768 -0.0315436 0.0597078 -0.0299983 -0.0315436 -0.121353 -0.0299983 -0.117121 -0.135308 -0.222444 -0.130717 -0.215073 -0.222444 -0.290602 -0.215073 -0.281162 -0.130717 -0.215073 -0.126126 -0.207894 -0.215073 -0.281162 -0.207894 -0.271999 -0.290602 -0.333997 -0.281162 -0.323243 -0.333997 -0.34889 -0.323243 -0.337684 -0.281162 -0.323243 -0.271999 -0.312813 -0.323243 -0.337684 -0.312813 -0.326821 -0.126126 -0.207894 -0.121353 -0.200922 -0.207894 -0.271999 -0.200922 -0.263105 -0.121353 -0.200922 -0.117121 -0.194157 -0.200922 -0.263105 -0.194157 -0.254473 -0.271999 -0.312813 -0.263105 -0.302694 -0.312813 -0.326821 -0.302694 -0.31628 -0.263105 -0.302694 -0.254473 -0.292874 -0.302694 -0.31628 -0.292874 -0.306052 0.317546 0.397984 0.307577 0.385223 0.27716 0.144779 0.268423 0.140343 0.144779 1.85385e-16 0.140343 1.79681e-16 0.268423 0.140343 0.260308 0.136084 0.140343 1.79681e-16 0.136084 1.74153e-16 0.307577 0.385223 0.297477 0.373293 0.297477 0.373293 0.288553 0.361805 0.288553 0.361805 0.279803 0.350927 0.279803 0.350927 0.272189 0.340757 -0.38512 -0.368849 -0.372511 -0.356617 -0.368849 -0.320754 -0.356617 -0.310396 -0.330897 -0.254097 -0.320754 -0.24578 -0.254097 -0.15529 -0.24578 -0.150037 -0.320754 -0.24578 -0.310396 -0.237813 -0.24578 -0.150037 -0.237813 -0.145281 -0.372511 -0.356617 -0.360467 -0.3451 -0.356617 -0.310396 -0.3451 -0.300328 -0.360467 -0.3451 -0.34889 -0.333998 -0.3451 -0.300328 -0.333998 -0.290603 -0.310396 -0.237813 -0.300328 -0.230028 -0.237813 -0.145281 -0.230028 -0.140307 -0.300328 -0.230028 -0.290603 -0.222452 -0.230028 -0.140307 -0.222452 -0.135333 -0.15529 -0.0437747 -0.150037 -0.0419071 -0.0437747 0.0708986 -0.0419071 0.0695429 -0.150037 -0.0419071 -0.145281 -0.0389271 -0.0419071 0.0695429 -0.0389271 0.0674263 0.179476 0.272189 0.174338 0.263402 0.0695429 0.174338 0.0674263 0.169273 0.174338 0.263402 0.169273 0.255872 0.0674263 0.169273 0.0659915 0.164544 0.169273 0.255872 0.164544 0.24849 0.0659915 0.164544 0.0645567 0.160142 0.164544 0.24849 0.160142 0.241283 -0.34889 -0.333998 -0.337684 -0.32326 -0.333998 -0.290603 -0.32326 -0.281225 -0.337684 -0.32326 -0.326821 -0.312808 -0.32326 -0.281225 -0.312808 -0.272154 -0.290603 -0.222452 -0.281225 -0.215151 -0.222452 -0.135333 -0.215151 -0.130783 -0.281225 -0.215151 -0.272154 -0.208361 -0.215151 -0.130783 -0.208361 -0.126234 -0.326821 -0.312808 -0.31628 -0.302687 -0.312808 -0.272154 -0.302687 -0.262773 -0.31628 -0.302687 -0.306052 -0.292874 -0.302687 -0.262773 -0.292874 -0.254473 0.0795209 -0.0488109 0.0772175 -0.0487292 -0.0488109 -0.177143 -0.0487292 -0.171149 0.0772175 -0.0487292 0.0748906 -0.0472085 -0.0487292 -0.171149 -0.0472085 -0.165823 0.0748906 -0.0472085 0.0728357 -0.0455394 -0.0472085 -0.165823 -0.0455394 -0.160533 0.0728357 -0.0455394 0.0709276 -0.0437488 -0.0455394 -0.160533 -0.0437488 -0.155269 -0.177152 -0.0488207 -0.171163 -0.0487457 -0.0488207 0.0795104 -0.0487457 0.0771995 -0.171163 -0.0487457 -0.165842 -0.0472303 -0.0487457 0.0771995 -0.0472303 0.0748672 -0.165842 -0.0472303 -0.160554 -0.0455644 -0.0472303 0.0748672 -0.0455644 0.0728084 -0.160554 -0.0455644 -0.15529 -0.0437747 -0.0455644 0.0728084 -0.0437747 0.0708986 0 0.120007 0 0.115946 0 0.115946 0 0.112943 0.120039 1.5369e-16 0.115935 1.48961e-16 0.115935 1.48961e-16 0.112933 1.44378e-16 -0.126234 -0.0321807 -0.12111 -0.0315451 -0.0321807 0.0618723 -0.0315451 0.0607771 -0.12111 -0.0315451 -0.117121 -0.0299983 -0.0315451 0.0607771 -0.0299983 0.0597078 0 0.100036 0 0.0967632 0 0.0967632 0 0.0939503 0 0.0939503 0 0.0915461 0 0.0915461 0 0.0888422 0.0915461 0.175102 0.0888422 0.170033 0.100032 1.27413e-16 0.0967596 1.23493e-16 0.0967596 1.23493e-16 0.0939477 1.19694e-16 0.0939477 1.19694e-16 0.0915447 1.16011e-16 0.175099 0.0915447 0.170033 0.0888422 0.0915447 1.16011e-16 0.0888422 1.12442e-16 0.212297 0.312527 0.208573 0.307461 0.312527 0.406102 0.307461 0.399583 0.208573 0.307461 0.205255 0.302393 0.307461 0.399583 0.302393 0.393201 0.768608 0.807004 0.756319 0.794174 0.807004 0.82793 0.794174 0.81474 0.756319 0.794174 0.7443 0.781779 0.794174 0.81474 0.781779 0.801739 0.82793 0.830934 0.81474 0.817605 0.830934 0.81595 0.817605 0.802756 0.81474 0.817605 0.801739 0.804442 0.817605 0.802756 0.804442 0.789809 0.801739 0.804442 0.788494 0.791605 0.804442 0.789809 0.791605 0.777038 0.788494 0.791605 0.776096 0.779227 0.791605 0.777038 0.779227 0.765029 0.697756 0.732813 0.686514 0.720844 0.732813 0.751508 0.720844 0.739408 0.686514 0.720844 0.675518 0.709265 0.720844 0.739408 0.709265 0.727552 0.475614 0.547512 0.467929 0.538745 0.467929 0.538745 0.460827 0.530218 0.675518 0.709265 0.66474 0.697929 0.709265 0.727552 0.697929 0.715915 0.66474 0.697929 0.654164 0.6868 0.697929 0.715915 0.6868 0.70448 0.654164 0.6868 0.643771 0.675864 0.6868 0.70448 0.675864 0.69324 0.643771 0.675864 0.633551 0.66512 0.675864 0.69324 0.66512 0.682194 0.3816 0.460827 0.375422 0.453511 0.460827 0.530218 0.453511 0.521827 0.375422 0.453511 0.369243 0.446266 0.453511 0.521827 0.446266 0.513505 0.369243 0.446266 0.363505 0.439144 0.446266 0.513505 0.439144 0.505287 0.363505 0.439144 0.357767 0.432072 0.439144 0.505287 0.432072 0.497282 0.633551 0.66512 0.623513 0.654594 0.66512 0.682194 0.654594 0.671355 0.623513 0.654594 0.613675 0.644404 0.654594 0.671355 0.644404 0.660749 -0.796113 -0.822931 -0.783902 -0.810412 -0.822931 -0.831936 -0.810412 -0.819314 -0.783902 -0.810412 -0.771954 -0.798193 -0.810412 -0.819314 -0.798193 -0.806918 0.54752 0.475621 0.538754 0.467938 0.538754 0.467938 0.530229 0.460836 0.530229 0.460836 0.521839 0.453522 0.460836 0.381608 0.453522 0.375431 0.521839 0.453522 0.513519 0.446278 0.453522 0.375431 0.446278 0.369253 0.513519 0.446278 0.505302 0.439157 0.446278 0.369253 0.439157 0.363517 0.505302 0.439157 0.497299 0.432087 0.439157 0.363517 0.432087 0.35778 -0.831936 -0.822931 -0.819314 -0.810408 -0.822931 -0.796113 -0.810408 -0.783895 -0.819314 -0.810408 -0.806918 -0.798185 -0.810408 -0.783895 -0.798185 -0.771939 -0.510442 -0.554874 -0.50301 -0.546446 -0.554874 -0.587111 -0.546446 -0.57835 -0.50301 -0.546446 -0.495451 -0.537905 -0.587111 -0.606738 -0.57835 -0.597595 -0.606738 -0.613312 -0.597595 -0.604061 -0.495451 -0.537905 -0.487995 -0.529944 -0.487995 -0.529944 -0.4808 -0.522011 -0.560767 -0.579648 -0.552275 -0.570884 -0.579648 -0.585936 -0.570884 -0.57708 0.357767 0.432072 0.351279 0.424734 0.351279 0.424734 0.345899 0.418106 0.81595 0.830934 0.802756 0.817605 0.830934 0.82793 0.817605 0.814741 0.802756 0.817605 0.78981 0.804444 0.817605 0.814741 0.804444 0.801741 0.82793 0.807004 0.814741 0.794175 0.807004 0.768608 0.794175 0.756319 0.814741 0.794175 0.801741 0.78178 0.794175 0.756319 0.78178 0.744302 0.78981 0.804444 0.77704 0.791607 0.804444 0.801741 0.791607 0.788496 0.77704 0.791607 0.765032 0.77923 0.791607 0.788496 0.77923 0.776099 0.751513 0.732818 0.739414 0.72085 0.732818 0.697761 0.72085 0.686521 0.739414 0.72085 0.727559 0.709272 0.72085 0.686521 0.709272 0.675525 0.727559 0.709272 0.715922 0.697937 0.709272 0.675525 0.697937 0.664749 0.715922 0.697937 0.704489 0.686809 0.697937 0.664749 0.686809 0.654174 0.704489 0.686809 0.69325 0.675874 0.686809 0.654174 0.675874 0.643781 0.69325 0.675874 0.682206 0.665132 0.675874 0.643781 0.665132 0.633563 0.765029 0.734514 0.752299 0.722426 0.734514 0.68786 0.722426 0.676604 0.752299 0.722426 0.740328 0.71072 0.722426 0.676604 0.71072 0.665638 0.68786 0.626295 0.676604 0.616001 0.626295 0.551017 0.616001 0.541875 0.676604 0.616001 0.665638 0.605967 0.616001 0.541875 0.605967 0.533221 0.740328 0.71072 0.728479 0.699274 0.71072 0.665638 0.699274 0.65501 0.728479 0.699274 0.716803 0.688029 0.699274 0.65501 0.688029 0.644165 0.665638 0.605967 0.65501 0.596373 0.605967 0.533221 0.596373 0.524102 0.596373 0.524102 0.586519 0.516745 0.682206 0.665132 0.671368 0.654608 0.665132 0.633563 0.654608 0.623527 0.671368 0.654608 0.660764 0.64442 0.654608 0.623527 0.64442 0.613691 0.432087 0.35778 0.424751 0.351293 0.424751 0.351293 0.418125 0.345914 -0.613312 -0.606728 -0.604061 -0.597588 -0.606728 -0.587097 -0.597588 -0.578342 -0.587097 -0.554877 -0.578342 -0.546451 -0.554877 -0.510512 -0.546451 -0.503074 -0.546451 -0.503074 -0.537899 -0.495434 -0.585936 -0.579641 -0.57708 -0.570878 -0.579641 -0.560755 -0.570878 -0.552262 -0.537899 -0.495434 -0.529924 -0.487961 -0.529924 -0.487961 -0.521989 -0.48076 0 0.106148 0 0.105328 0.106148 0.212297 0.105328 0.208573 0 0.105328 0 0.103694 0.105328 0.208573 0.103694 0.205255 -0.490993 -0.519357 -0.483402 -0.511321 -0.483402 -0.511321 -0.476093 -0.503549 0.716803 0.688029 0.705309 0.676953 0.688029 0.644165 0.676953 0.633916 0.705309 0.676953 0.694003 0.666084 0.676953 0.633916 0.666084 0.62369 0.586519 0.516745 0.577286 0.508379 0.577286 0.508379 0.567806 0.500013 0.694003 0.666084 0.682886 0.65539 0.666084 0.62369 0.65539 0.613599 0.682886 0.65539 0.671904 0.644894 0.65539 0.613599 0.644894 0.603793 0.567806 0.500013 0.558493 0.49073 0.558493 0.49073 0.54937 0.483211 0.392172 0.280271 0.385541 0.275422 0.280271 0.162303 0.275422 0.159329 0.385541 0.275422 0.378965 0.270693 0.275422 0.159329 0.270693 0.156356 0.471624 0.372675 0.463849 0.367169 0.671904 0.644894 0.661103 0.634169 0.661103 0.634169 0.650526 0.62402 0.650526 0.62402 0.640188 0.614449 0.640188 0.614449 0.630073 0.604767 0.614449 0.575366 0.604767 0.566056 0.575366 0.523245 0.566056 0.514825 0.378965 0.270693 0.372675 0.265929 0.270693 0.156356 0.265929 0.153834 0.372675 0.265929 0.367169 0.25924 0.265929 0.153834 0.25924 0.151311 -0.616424 -0.691729 -0.606912 -0.68105 -0.606912 -0.68105 -0.597598 -0.670577 0.463849 0.367169 0.456185 0.360839 0.456185 0.360839 0.448858 0.354509 -0.597598 -0.670577 -0.588539 -0.660239 -0.588539 -0.660239 -0.579674 -0.65064 0 0.103694 0 0.102075 0.103694 0.205255 0.102075 0.20175 0 0.102075 0 0.0998006 0.102075 0.20175 0.0998006 0.199601 -0.579674 -0.65064 -0.571119 -0.640829 0.533221 0.448858 0.524102 0.441114 0.448858 0.354509 0.441114 0.349103 0.524102 0.441114 0.516745 0.430221 0.441114 0.349103 0.430221 0.343697 0.205255 0.302393 0.20175 0.297494 0.302393 0.393201 0.297494 0.386685 0.20175 0.297494 0.199601 0.290601 0.297494 0.386685 0.290601 0.3816 -0.519352 -0.490986 -0.511317 -0.483397 -0.511317 -0.483397 -0.503546 -0.476089 -0.65064 -0.7076 -0.640829 -0.696607 -0.7076 -0.748931 -0.696607 -0.737403 -0.640829 -0.696607 -0.630767 -0.68594 -0.696607 -0.737403 -0.68594 -0.726098 -0.748931 -0.774096 -0.737403 -0.762205 -0.774096 -0.782537 -0.762205 -0.770523 -0.737403 -0.762205 -0.726098 -0.750532 -0.762205 -0.770523 -0.750532 -0.758724 -0.630767 -0.68594 -0.621321 -0.675489 -0.68594 -0.726098 -0.675489 -0.715034 -0.621321 -0.675489 -0.611967 -0.66529 -0.675489 -0.715034 -0.66529 -0.704181 -0.726098 -0.750532 -0.715034 -0.739086 -0.750532 -0.758724 -0.739086 -0.747151 -0.715034 -0.739086 -0.704181 -0.727849 -0.739086 -0.747151 -0.727849 -0.735792 0.470066 0.506255 0.462546 0.498147 0.462546 0.498147 0.455293 0.490329 -0.237783 -0.317401 -0.234656 -0.312709 -0.317401 -0.390389 -0.312709 -0.384671 -0.234656 -0.312709 -0.23153 -0.30569 -0.312709 -0.384671 -0.30569 -0.3798