# vtk DataFile Version 3.0
#This file was generated by the deal.II library on 2018/12/4 at 0:47:18
ASCII
DATASET UNSTRUCTURED_GRID

POINTS 81316 double
0.3125 0.15625 0
0.34375 0.15625 0
0.3125 0.1875 0
0.34375 0.1875 0
0.65625 0.15625 0
0.6875 0.15625 0
0.65625 0.1875 0
0.6875 0.1875 0
0.65625 0.1875 0
0.6875 0.1875 0
0.65625 0.21875 0
0.6875 0.21875 0
0.65625 0.21875 0
0.6875 0.21875 0
0.65625 0.25 0
0.6875 0.25 0
0.65625 0.25 0
0.6875 0.25 0
0.65625 0.28125 0
0.6875 0.28125 0
0.65625 0.28125 0
0.6875 0.28125 0
0.65625 0.3125 0
0.6875 0.3125 0
0 0.625 0
0.03125 0.625 0
0 0.65625 0
0.03125 0.65625 0
0 0.4375 0
0.03125 0.4375 0
0 0.46875 0
0.03125 0.46875 0
0 0.46875 0
0.03125 0.46875 0
0 0.5 0
0.03125 0.5 0
0.96875 0.4375 0
1 0.4375 0
0.96875 0.46875 0
1 0.46875 0
0.96875 0.46875 0
1 0.46875 0
0.96875 0.5 0
1 0.5 0
0.96875 0.59375 0
1 0.59375 0
0.96875 0.625 0
1 0.625 0
0.6875 0.875 0
0.71875 0.875 0
0.6875 0.90625 0
0.71875 0.90625 0
0.6875 0.90625 0
0.71875 0.90625 0
0.6875 0.9375 0
0.71875 0.9375 0
0.3125 0.1875 0
0.34375 0.1875 0
0.3125 0.21875 0
0.34375 0.21875 0
0.3125 0.21875 0
0.34375 0.21875 0
0.3125 0.25 0
0.34375 0.25 0
0.3125 0.25 0
0.34375 0.25 0
0.3125 0.28125 0
0.34375 0.28125 0
0.3125 0.28125 0
0.34375 0.28125 0
0.3125 0.3125 0
0.34375 0.3125 0
0.3125 0.3125 0
0.34375 0.3125 0
0.3125 0.34375 0
0.34375 0.34375 0
0.65625 0.3125 0
0.6875 0.3125 0
0.65625 0.34375 0
0.6875 0.34375 0
0.3125 0.5 0
0.34375 0.5 0
0.3125 0.53125 0
0.34375 0.53125 0
0.3125 0.5625 0
0.34375 0.5625 0
0.3125 0.59375 0
0.34375 0.59375 0
0.3125 0.59375 0
0.34375 0.59375 0
0.3125 0.625 0
0.34375 0.625 0
0.34375 0.59375 0
0.375 0.59375 0
0.34375 0.625 0
0.375 0.625 0
0 0.375 0
0.03125 0.375 0
0 0.40625 0
0.03125 0.40625 0
0 0.40625 0
0.03125 0.40625 0
0 0.4375 0
0.03125 0.4375 0
0.65625 0.5 0
0.6875 0.5 0
0.65625 0.53125 0
0.6875 0.53125 0
0.65625 0.5625 0
0.6875 0.5625 0
0.65625 0.59375 0
0.6875 0.59375 0
0.625 0.59375 0
0.65625 0.59375 0
0.625 0.625 0
0.65625 0.625 0
0.65625 0.59375 0
0.6875 0.59375 0
0.65625 0.625 0
0.6875 0.625 0
0.96875 0.375 0
1 0.375 0
0.96875 0.40625 0
1 0.40625 0
0.96875 0.40625 0
1 0.40625 0
0.96875 0.4375 0
1 0.4375 0
0 0.5 0
0.03125 0.5 0
0 0.53125 0
0.03125 0.53125 0
0 0.53125 0
0.03125 0.53125 0
0 0.5625 0
0.03125 0.5625 0
0.34375 0.75 0
0.375 0.75 0
0.34375 0.78125 0
0.375 0.78125 0
0.34375 0.78125 0
0.375 0.78125 0
0.34375 0.8125 0
0.375 0.8125 0
0.3125 0.8125 0
0.34375 0.8125 0
0.3125 0.84375 0
0.34375 0.84375 0
0.34375 0.8125 0
0.375 0.8125 0
0.34375 0.84375 0
0.375 0.84375 0
0.3125 0.84375 0
0.34375 0.84375 0
0.3125 0.875 0
0.34375 0.875 0
0.34375 0.84375 0
0.375 0.84375 0
0.34375 0.875 0
0.375 0.875 0
0.28125 0.875 0
0.3125 0.875 0
0.28125 0.90625 0
0.3125 0.90625 0
0.28125 0.90625 0
0.3125 0.90625 0
0.28125 0.9375 0
0.3125 0.9375 0
0.3125 0.875 0
0.34375 0.875 0
0.3125 0.90625 0
0.34375 0.90625 0
0.34375 0.875 0
0.375 0.875 0
0.34375 0.90625 0
0.375 0.90625 0
0.3125 0.90625 0
0.34375 0.90625 0
0.3125 0.9375 0
0.34375 0.9375 0
0.34375 0.90625 0
0.375 0.90625 0
0.34375 0.9375 0
0.375 0.9375 0
0.28125 0.9375 0
0.3125 0.9375 0
0.28125 0.96875 0
0.3125 0.96875 0
0.28125 0.96875 0
0.3125 0.96875 0
0.28125 1 0
0.3125 1 0
0.3125 0.9375 0
0.34375 0.9375 0
0.3125 0.96875 0
0.34375 0.96875 0
0.3125 0.96875 0
0.34375 0.96875 0
0.3125 1 0
0.34375 1 0
0.96875 0.5 0
1 0.5 0
0.96875 0.53125 0
1 0.53125 0
0.96875 0.53125 0
1 0.53125 0
0.96875 0.5625 0
1 0.5625 0
0.625 0.75 0
0.65625 0.75 0
0.625 0.78125 0
0.65625 0.78125 0
0.625 0.78125 0
0.65625 0.78125 0
0.625 0.8125 0
0.65625 0.8125 0
0.625 0.8125 0
0.65625 0.8125 0
0.625 0.84375 0
0.65625 0.84375 0
0.65625 0.8125 0
0.6875 0.8125 0
0.65625 0.84375 0
0.6875 0.84375 0
0.625 0.84375 0
0.65625 0.84375 0
0.625 0.875 0
0.65625 0.875 0
0.65625 0.84375 0
0.6875 0.84375 0
0.65625 0.875 0
0.6875 0.875 0
0.625 0.875 0
0.65625 0.875 0
0.625 0.90625 0
0.65625 0.90625 0
0.65625 0.875 0
0.6875 0.875 0
0.65625 0.90625 0
0.6875 0.90625 0
0.625 0.90625 0
0.65625 0.90625 0
0.625 0.9375 0
0.65625 0.9375 0
0.65625 0.90625 0
0.6875 0.90625 0
0.65625 0.9375 0
0.6875 0.9375 0
0.3125 0.625 0
0.34375 0.625 0
0.3125 0.65625 0
0.34375 0.65625 0
0.34375 0.625 0
0.375 0.625 0
0.34375 0.65625 0
0.375 0.65625 0
0.3125 0.65625 0
0.34375 0.65625 0
0.3125 0.6875 0
0.34375 0.6875 0
0.34375 0.65625 0
0.375 0.65625 0
0.34375 0.6875 0
0.375 0.6875 0
0.3125 0.6875 0
0.34375 0.6875 0
0.3125 0.71875 0
0.34375 0.71875 0
0.34375 0.6875 0
0.375 0.6875 0
0.34375 0.71875 0
0.375 0.71875 0
0.3125 0.71875 0
0.34375 0.71875 0
0.3125 0.75 0
0.34375 0.75 0
0.34375 0.71875 0
0.375 0.71875 0
0.34375 0.75 0
0.375 0.75 0
0.625 0.625 0
0.65625 0.625 0
0.625 0.65625 0
0.65625 0.65625 0
0.65625 0.625 0
0.6875 0.625 0
0.65625 0.65625 0
0.6875 0.65625 0
0.625 0.65625 0
0.65625 0.65625 0
0.625 0.6875 0
0.65625 0.6875 0
0.65625 0.65625 0
0.6875 0.65625 0
0.65625 0.6875 0
0.6875 0.6875 0
0.625 0.6875 0
0.65625 0.6875 0
0.625 0.71875 0
0.65625 0.71875 0
0.65625 0.6875 0
0.6875 0.6875 0
0.65625 0.71875 0
0.6875 0.71875 0
0.625 0.71875 0
0.65625 0.71875 0
0.625 0.75 0
0.65625 0.75 0
0.65625 0.71875 0
0.6875 0.71875 0
0.65625 0.75 0
0.6875 0.75 0
0.65625 0.9375 0
0.6875 0.9375 0
0.65625 0.96875 0
0.6875 0.96875 0
0.65625 0.96875 0
0.6875 0.96875 0
0.65625 1 0
0.6875 1 0
0.6875 0.9375 0
0.71875 0.9375 0
0.6875 0.96875 0
0.71875 0.96875 0
0.6875 0.96875 0
0.71875 0.96875 0
0.6875 1 0
0.71875 1 0
0 0.125 0
0.015625 0.125 0
0 0.140625 0
0.015625 0.140625 0
0.015625 0.125 0
0.03125 0.125 0
0.015625 0.140625 0
0.03125 0.140625 0
0 0.140625 0
0.015625 0.140625 0
0 0.15625 0
0.015625 0.15625 0
0.015625 0.140625 0
0.03125 0.140625 0
0.015625 0.15625 0
0.03125 0.15625 0
0.296875 0.046875 0
0.3125 0.046875 0
0.296875 0.0625 0
0.3125 0.0625 0
0.6875 0.046875 0
0.703125 0.046875 0
0.6875 0.0625 0
0.703125 0.0625 0
0.296875 0.65625 0
0.3125 0.65625 0
0.296875 0.671875 0
0.3125 0.671875 0
0.296875 0.671875 0
0.3125 0.671875 0
0.296875 0.6875 0
0.3125 0.6875 0
0.875 0.484375 0
0.890625 0.484375 0
0.875 0.5 0
0.890625 0.5 0
0.296875 0.6875 0
0.3125 0.6875 0
0.296875 0.703125 0
0.3125 0.703125 0
0.296875 0.703125 0
0.3125 0.703125 0
0.296875 0.71875 0
0.3125 0.71875 0
0.6875 0.65625 0
0.703125 0.65625 0
0.6875 0.671875 0
0.703125 0.671875 0
0.6875 0.671875 0
0.703125 0.671875 0
0.6875 0.6875 0
0.703125 0.6875 0
0.6875 0.6875 0
0.703125 0.6875 0
0.6875 0.703125 0
0.703125 0.703125 0
0.6875 0.703125 0
0.703125 0.703125 0
0.6875 0.71875 0
0.703125 0.71875 0
0 0.15625 0
0.015625 0.15625 0
0 0.171875 0
0.015625 0.171875 0
0.015625 0.15625 0
0.03125 0.15625 0
0.015625 0.171875 0
0.03125 0.171875 0
0 0.171875 0
0.015625 0.171875 0
0 0.1875 0
0.015625 0.1875 0
0.015625 0.171875 0
0.03125 0.171875 0
0.015625 0.1875 0
0.03125 0.1875 0
0.3125 0.53125 0
0.328125 0.53125 0
0.3125 0.546875 0
0.328125 0.546875 0
0.328125 0.53125 0
0.34375 0.53125 0
0.328125 0.546875 0
0.34375 0.546875 0
0.3125 0.546875 0
0.328125 0.546875 0
0.3125 0.5625 0
0.328125 0.5625 0
0.328125 0.546875 0
0.34375 0.546875 0
0.328125 0.5625 0
0.34375 0.5625 0
0.03125 0.3125 0
0.046875 0.3125 0
0.03125 0.328125 0
0.046875 0.328125 0
0.046875 0.3125 0
0.0625 0.3125 0
0.046875 0.328125 0
0.0625 0.328125 0
0.375 0.484375 0
0.390625 0.484375 0
0.375 0.5 0
0.390625 0.5 0
0.125 0.71875 0
0.140625 0.71875 0
0.125 0.734375 0
0.140625 0.734375 0
0.9375 0.3125 0
0.953125 0.3125 0
0.9375 0.328125 0
0.953125 0.328125 0
0.953125 0.3125 0
0.96875 0.3125 0
0.953125 0.328125 0
0.96875 0.328125 0
0.859375 0.71875 0
0.875 0.71875 0
0.859375 0.734375 0
0.875 0.734375 0
0.078125 0.6875 0
0.09375 0.6875 0
0.078125 0.703125 0
0.09375 0.703125 0
0.90625 0.6875 0
0.921875 0.6875 0
0.90625 0.703125 0
0.921875 0.703125 0
0.609375 0.484375 0
0.625 0.484375 0
0.609375 0.5 0
0.625 0.5 0
0.03125 0.28125 0
0.046875 0.28125 0
0.03125 0.296875 0
0.046875 0.296875 0
0.046875 0.28125 0
0.0625 0.28125 0
0.046875 0.296875 0
0.0625 0.296875 0
0.03125 0.296875 0
0.046875 0.296875 0
0.03125 0.3125 0
0.046875 0.3125 0
0.046875 0.296875 0
0.0625 0.296875 0
0.046875 0.3125 0
0.0625 0.3125 0
0.9375 0.28125 0
0.953125 0.28125 0
0.9375 0.296875 0
0.953125 0.296875 0
0.953125 0.28125 0
0.96875 0.28125 0
0.953125 0.296875 0
0.96875 0.296875 0
0.9375 0.296875 0
0.953125 0.296875 0
0.9375 0.3125 0
0.953125 0.3125 0
0.953125 0.296875 0
0.96875 0.296875 0
0.953125 0.3125 0
0.96875 0.3125 0
0.25 0.453125 0
0.265625 0.453125 0
0.25 0.46875 0
0.265625 0.46875 0
0.25 0.46875 0
0.265625 0.46875 0
0.25 0.484375 0
0.265625 0.484375 0
0.25 0.484375 0
0.265625 0.484375 0
0.25 0.5 0
0.265625 0.5 0
0.34375 0.15625 0
0.359375 0.15625 0
0.34375 0.171875 0
0.359375 0.171875 0
0.359375 0.15625 0
0.375 0.15625 0
0.359375 0.171875 0
0.375 0.171875 0
0.34375 0.171875 0
0.359375 0.171875 0
0.34375 0.1875 0
0.359375 0.1875 0
0.359375 0.171875 0
0.375 0.171875 0
0.359375 0.1875 0
0.375 0.1875 0
0.421875 0.640625 0
0.4375 0.640625 0
0.421875 0.65625 0
0.4375 0.65625 0
0.421875 0.65625 0
0.4375 0.65625 0
0.421875 0.671875 0
0.4375 0.671875 0
0.421875 0.671875 0
0.4375 0.671875 0
0.421875 0.6875 0
0.4375 0.6875 0
0.421875 0.6875 0
0.4375 0.6875 0
0.421875 0.703125 0
0.4375 0.703125 0
0.421875 0.703125 0
0.4375 0.703125 0
0.421875 0.71875 0
0.4375 0.71875 0
0.109375 0.75 0
0.125 0.75 0
0.109375 0.765625 0
0.125 0.765625 0
0.109375 0.765625 0
0.125 0.765625 0
0.109375 0.78125 0
0.125 0.78125 0
0.109375 0.78125 0
0.125 0.78125 0
0.109375 0.796875 0
0.125 0.796875 0
0.109375 0.796875 0
0.125 0.796875 0
0.109375 0.8125 0
0.125 0.8125 0
0.109375 0.859375 0
0.125 0.859375 0
0.109375 0.875 0
0.125 0.875 0
0.734375 0.453125 0
0.75 0.453125 0
0.734375 0.46875 0
0.75 0.46875 0
0.734375 0.46875 0
0.75 0.46875 0
0.734375 0.484375 0
0.75 0.484375 0
0.734375 0.484375 0
0.75 0.484375 0
0.734375 0.5 0
0.75 0.5 0
0.5625 0.640625 0
0.578125 0.640625 0
0.5625 0.65625 0
0.578125 0.65625 0
0.5625 0.65625 0
0.578125 0.65625 0
0.5625 0.671875 0
0.578125 0.671875 0
0.5625 0.671875 0
0.578125 0.671875 0
0.5625 0.6875 0
0.578125 0.6875 0
0.5625 0.6875 0
0.578125 0.6875 0
[...]
POINT_DATA 81316
SCALARS U double 1
LOOKUP_TABLE default
0.128902 -0.0674935 0.124503 -0.0658392 -0.0674925 0.128904 -0.0658392 0.124504 -0.0658392 0.124504 -0.0641914 0.120291 -0.0641914 0.120291 -0.0625818 0.116229 -0.0625818 0.116229 -0.0610086 0.11231 -0.0610086 0.11231 -0.0594723 0.108529 0 0.121245 0 0.117521 0 0.146196 0 0.141661 0 0.141661 0 0.13729 0.146197 1.85849e-16 0.141661 1.80131e-16 0.141661 1.80131e-16 0.137284 1.74589e-16 0.125042 1.58965e-16 0.121209 1.54074e-16 0.0622989 0.1526 0.0606385 0.148104 0.0606385 0.148104 0.0590984 0.143869 0.124503 -0.0658392 0.120288 -0.0641946 0.120288 -0.0641946 0.116224 -0.0625903 0.116224 -0.0625903 0.112304 -0.0610173 0.112304 -0.0610173 0.108522 -0.0594606 0.108522 -0.0594606 0.104909 -0.0579429 -0.0594723 0.108529 -0.0579396 0.104916 0.0887521 -0.0505504 0.0859118 -0.0491068 0.0831753 -0.0476148 0.0805852 -0.0463973 0.0805852 -0.0463973 0.0780867 -0.044906 -0.0463973 -0.16964 -0.044906 -0.164288 0 0.155813 0 0.15087 0 0.15087 0 0.146196 -0.0505487 0.0887583 -0.0490982 0.0859188 -0.0475977 0.0831798 -0.0464 0.0805863 -0.169646 -0.0464 -0.164291 -0.0449089 -0.0464 0.0805863 -0.0449089 0.0780838 0.155816 1.97835e-16 0.150873 1.91749e-16 0.150873 1.91749e-16 0.146197 1.85849e-16 0 0.13729 0 0.133089 0 0.133089 0 0.129072 -0.0391513 -0.144517 -0.0377837 -0.139857 -0.0377837 -0.139857 -0.0363301 -0.135295 0.0655765 -0.0363301 0.0637483 -0.0349172 -0.0363301 -0.135295 -0.0349172 -0.130837 0.0637483 -0.0349172 0.0622947 -0.0335298 -0.0349172 -0.130837 -0.0335298 -0.126498 0.152595 0.0622947 0.148081 0.0606325 0.148081 0.0606325 0.143846 0.0590935 0.0622947 -0.0335298 0.0606325 -0.0321715 -0.0335298 -0.126498 -0.0321715 -0.122289 0.0606325 -0.0321715 0.0590935 -0.0308788 -0.0321715 -0.122289 -0.0308788 -0.118292 0.143846 0.0590935 0.139777 0.0576285 0.139777 0.0576285 0.13587 0.0562307 0.0590935 -0.0308788 0.0576285 -0.0294312 0.0576285 -0.0294312 0.0562307 -0.0282514 0.137284 1.74589e-16 0.133066 1.69218e-16 0.133066 1.69218e-16 0.129004 1.64011e-16 -0.144519 -0.0391541 -0.139857 -0.0377852 -0.139857 -0.0377852 -0.135294 -0.03633 -0.135294 -0.03633 -0.130834 -0.0349154 -0.03633 0.0655759 -0.0349154 0.0637494 -0.130834 -0.0349154 -0.126496 -0.0335273 -0.0349154 0.0637494 -0.0335273 0.0622989 -0.126496 -0.0335273 -0.122292 -0.0321686 -0.0335273 0.0622989 -0.0321686 0.0606385 -0.122292 -0.0321686 -0.118285 -0.030878 -0.0321686 0.0606385 -0.030878 0.0590984 0.0780867 -0.044906 0.0757298 -0.0434555 -0.044906 -0.164288 -0.0434555 -0.159168 0.0757298 -0.0434555 0.0734751 -0.0420183 -0.0434555 -0.159168 -0.0420183 -0.154166 0.0734751 -0.0420183 0.0713729 -0.0405846 -0.0420183 -0.154166 -0.0405846 -0.149278 0.0713729 -0.0405846 0.0693621 -0.0391513 -0.0405846 -0.149278 -0.0391513 -0.144517 -0.164291 -0.0449089 -0.15917 -0.0434588 -0.0449089 0.0780838 -0.0434588 0.0757258 -0.15917 -0.0434588 -0.154169 -0.042022 -0.0434588 0.0757258 -0.042022 0.0734708 -0.154169 -0.042022 -0.149281 -0.0405881 -0.042022 0.0734708 -0.0405881 0.0713688 -0.149281 -0.0405881 -0.144519 -0.0391541 -0.0405881 0.0713688 -0.0391541 0.0693588 -0.030878 0.0590984 -0.0294309 0.0576309 -0.0294309 0.0576309 -0.0282514 0.0562307 0.0590984 0.143869 0.0576309 0.139775 0.0576309 0.139775 0.0562307 0.13587 0 0.101208 0 0.0996221 0.101208 0.200298 0.0996221 0.197158 0 0.0996221 0 0.0980586 0.0996221 0.197158 0.0980586 0.194066 0.251263 0.145259 0.24706 0.142798 0.145261 0.251265 0.142801 0.247062 0.133454 0.0757298 0.131325 0.0746024 0.131325 0.0746024 0.129363 0.0734751 0.443756 0.412066 0.436844 0.405645 0.129363 0.0734751 0.127398 0.072424 0.127398 0.072424 0.125592 0.0713729 0.0757258 0.13345 0.0745983 0.131321 0.0745983 0.131321 0.0734708 0.129359 0.0734708 0.129359 0.0724198 0.127394 0.0724198 0.127394 0.0713688 0.125588 0 0.0980586 0 0.0965367 0.0980586 0.194066 0.0965367 0.190991 0 0.0965367 0 0.0950437 0.0965367 0.190991 0.0950437 0.188125 0.0859118 0.0184025 0.084452 0.0182399 0.0184025 -0.0491068 0.0182399 -0.0484587 0.084452 0.0182399 0.0831753 0.0177803 0.0182399 -0.0484587 0.0177803 -0.0476148 0.165838 0.244253 0.163258 0.240464 0.244253 0.31734 0.240464 0.312392 -0.188804 -0.252125 -0.185918 -0.248391 0.350948 0.368389 0.345515 0.362713 0.317344 0.244256 0.312396 0.240468 0.244256 0.165841 0.240468 0.16326 0.368387 0.350946 0.362711 0.345513 0.263262 0.302969 0.25915 0.298273 0.302966 0.263258 0.29827 0.259148 -0.252122 -0.188802 -0.248389 -0.185917 0.171138 0.252173 0.168473 0.248142 0.252173 0.327558 0.248142 0.322394 0.168473 0.248142 0.165838 0.244253 0.248142 0.322394 0.244253 0.31734 0.327561 0.252176 0.322398 0.248145 0.252176 0.17114 0.248145 0.168475 0.322398 0.248145 0.317344 0.244256 0.248145 0.168475 0.244256 0.165841 0.348473 0.29292 0.342921 0.288231 0.342921 0.288231 0.337534 0.283693 0.337534 0.283693 0.332304 0.279297 -0.0674935 -0.164725 -0.0666663 -0.162299 -0.164725 -0.258273 -0.162299 -0.254427 -0.0666663 -0.162299 -0.0658392 -0.15997 -0.162299 -0.254427 -0.15997 -0.250669 -0.309651 -0.346983 -0.304737 -0.341489 -0.304737 -0.341489 -0.29995 -0.33613 -0.29995 -0.33613 -0.295239 -0.33086 -0.295239 -0.33086 -0.290602 -0.325672 -0.290602 -0.325672 -0.286074 -0.320607 0.315938 0.34018 0.311001 0.3349 0.311001 0.3349 0.306219 0.329754 0.306219 0.329754 0.301532 0.324709 0.301532 0.324709 0.296981 0.319805 0.283603 0.305405 0.279285 0.300759 0.292923 0.348473 0.288235 0.342922 0.288235 0.342922 0.283698 0.337537 0.283698 0.337537 0.279304 0.33231 -0.346984 -0.309652 -0.34149 -0.304739 -0.34149 -0.304739 -0.336132 -0.299952 -0.336132 -0.299952 -0.330861 -0.295241 -0.330861 -0.295241 -0.325674 -0.290604 -0.325674 -0.290604 -0.320608 -0.286075 0.340177 0.315936 0.334898 0.310999 0.334898 0.310999 0.329752 0.306216 0.329752 0.306216 0.324707 0.30153 0.324707 0.30153 0.319803 0.296979 0.305404 0.283602 0.300759 0.279284 0.317654 0.365584 0.312688 0.359883 -0.258269 -0.164723 -0.254427 -0.162299 -0.164723 -0.0674925 -0.162299 -0.0666658 -0.254427 -0.162299 -0.250668 -0.159969 -0.162299 -0.0666658 -0.159969 -0.0658392 -0.250668 -0.159969 -0.246972 -0.157681 -0.159969 -0.0658392 -0.157681 -0.0650153 -0.246972 -0.157681 -0.243331 -0.155426 -0.157681 -0.0650153 -0.155426 -0.0641914 -0.243331 -0.155426 -0.239743 -0.153201 -0.155426 -0.0641914 -0.153201 -0.0633866 -0.239743 -0.153201 -0.236208 -0.151009 -0.153201 -0.0633866 -0.151009 -0.0625818 -0.236208 -0.151009 -0.232724 -0.148846 -0.151009 -0.0625818 -0.148846 -0.0617952 -0.232724 -0.148846 -0.229288 -0.146711 -0.148846 -0.0617952 -0.146711 -0.0610086 -0.357058 -0.369142 -0.351386 -0.363275 -0.369142 -0.373163 -0.363275 -0.367234 0.231759 0.178403 0.228147 0.175636 0.178403 0.121209 0.175636 0.119182 0.228147 0.175636 0.224599 0.172819 0.220084 0.156137 0.21659 0.153661 0.156137 0.0887521 0.153661 0.087332 0.21659 0.153661 0.213177 0.151222 0.153661 0.087332 0.151222 0.0859118 0.213177 0.151222 0.209841 0.148878 0.151222 0.0859118 0.148878 0.084452 0.141661 0.208685 0.139476 0.205271 0.139476 0.205271 0.13729 0.202245 -0.373163 -0.369142 -0.367234 -0.363275 -0.369142 -0.357059 -0.363275 -0.351386 0.0887583 0.156144 0.0873386 0.153668 0.156144 0.22009 0.153668 0.216597 0.0873386 0.153668 0.0859188 0.151228 0.153668 0.216597 0.151228 0.213183 0.0859188 0.151228 0.0844587 0.148883 0.151228 0.213183 0.148883 0.209845 0.208686 0.141661 0.205269 0.139472 0.205269 0.139472 0.20224 0.137284 0.242928 0.18702 0.239137 0.184069 0.18702 0.126766 0.184069 0.125042 0.239137 0.184069 0.235417 0.181231 0.184069 0.125042 0.181231 0.123125 0.235417 0.181231 0.231759 0.178403 0.181231 0.123125 0.178403 0.121209 -0.224361 -0.192239 -0.220693 -0.189053 -0.192239 -0.155839 -0.189053 -0.153281 -0.220693 -0.189053 -0.217094 -0.185856 -0.217094 -0.185856 -0.213564 -0.182851 0.152851 0.0384439 0.150235 0.0376138 0.0384439 -0.0767952 0.0376138 -0.0758228 0.150235 0.0376138 0.147651 0.0368397 0.0376138 -0.0758228 0.0368397 -0.0748401 0.242438 0.19114 0.238692 0.188169 0.137604 0.0780867 0.135485 0.0769082 0.19114 0.135485 0.188169 0.133454 0.135485 0.0769082 0.133454 0.0757298 0.238692 0.188169 0.235023 0.185191 0.235023 0.185191 0.231418 0.18239 -0.0767952 -0.190372 -0.0758228 -0.187627 -0.190372 -0.299828 -0.187627 -0.295355 -0.0758228 -0.187627 -0.0748401 -0.184977 -0.187627 -0.295355 -0.184977 -0.291002 0.231418 0.18239 0.227899 0.179603 0.227899 0.179603 0.224439 0.176979 0.147651 0.0368397 0.145259 0.0360904 0.0368397 -0.0748401 0.0360904 -0.0737936 0.145259 0.0360904 0.142798 0.0353543 0.0360904 -0.0737936 0.0353543 -0.0728597 0.224439 0.176979 0.220999 0.174323 0.220999 0.174323 0.217759 0.17162 0.176979 0.125592 0.174323 0.123728 0.125592 0.0713729 0.123728 0.0703675 0.123728 0.0703675 0.121807 0.0693621 -0.0658392 -0.15997 -0.0650169 -0.157683 -0.15997 -0.250669 -0.157683 -0.246976 -0.0650169 -0.157683 -0.0641946 -0.155431 -0.157683 -0.246976 -0.155431 -0.24334 -0.0641946 -0.155431 -0.0633925 -0.15321 -0.155431 -0.24334 -0.15321 -0.239757 -0.0633925 -0.15321 -0.0625903 -0.15102 -0.15321 -0.239757 -0.15102 -0.236226 0.0780838 0.137601 0.0769048 0.135481 0.0769048 0.135481 0.0757258 0.13345 0.135481 0.191136 0.13345 0.188164 0.191136 0.242433 0.188164 0.238687 0.24706 0.142798 0.243172 0.140386 0.340652 0.243172 0.33509 0.239164 0.243172 0.140386 0.239164 0.138018 0.188164 0.238687 0.185186 0.235018 0.185186 0.235018 0.182386 0.231413 0.33509 0.239164 0.329685 0.235237 0.239164 0.138018 0.235237 0.135667 0.329685 0.235237 0.324368 0.231379 0.235237 0.135667 0.231379 0.133349 0.182386 0.231413 0.179598 0.227894 0.179598 0.227894 0.176975 0.224435 0.0713688 0.125588 0.0703638 0.123724 0.125588 0.176975 0.123724 0.174319 0.0703638 0.123724 0.0693588 0.121803 0.176975 0.224435 0.174319 0.220995 0.174319 0.220995 0.171616 0.217756 -0.0625903 -0.15102 -0.0618038 -0.148861 -0.15102 -0.236226 -0.148861 -0.232745 -0.0618038 -0.148861 -0.0610173 -0.146736 -0.148861 -0.232745 -0.146736 -0.229317 -0.0610173 -0.146736 -0.0602389 -0.144645 -0.146736 -0.229317 -0.144645 -0.225973 -0.0602389 -0.144645 -0.0594606 -0.142439 -0.0564973 -0.134581 -0.0557455 -0.132494 -0.0557455 -0.132494 -0.054989 -0.130634 -0.0476148 -0.112405 -0.0470061 -0.110602 -0.0470061 -0.110602 -0.0463973 -0.108018 -0.110602 -0.172005 -0.108018 -0.16964 0 0.114962 0 0.11309 0.114962 0.227434 0.11309 0.223796 0 0.11309 0 0.111292 0.11309 0.223796 0.111292 0.220249 -0.0520451 -0.123064 -0.0513449 -0.121271 -0.0513449 -0.121271 -0.0505504 -0.119516 -0.121271 -0.188804 -0.119516 -0.185918 -0.0505504 -0.119516 -0.0498286 -0.117631 -0.0498286 -0.117631 -0.0491068 -0.115866 -0.13457 -0.0564881 -0.132484 -0.0557371 -0.132484 -0.0557371 -0.130626 -0.0549817 0 0.111292 0 0.109536 0.111292 0.220249 0.109536 0.216777 0 0.109536 0 0.107813 0.109536 0.216777 0.107813 0.213369 0 0.107813 0 0.106121 0.107813 0.213369 0.106121 0.21002 0 0.106121 0 0.104457 0.106121 0.21002 0.104457 0.206727 -0.12306 -0.0520408 -0.121268 -0.0513413 -0.188802 -0.121268 -0.185917 -0.119514 -0.121268 -0.0513413 -0.119514 -0.0505487 -0.119514 -0.0505487 -0.117632 -0.0498235 -0.117632 -0.0498235 -0.115888 -0.0490982 0.121807 0.0693621 0.12003 0.0683238 0.12003 0.0683238 0.118264 0.0673797 0.216127 0.181977 0.212954 0.17933 0.181977 0.143846 0.17933 0.141812 0.212954 0.17933 0.209842 0.176739 0.17933 0.141812 0.176739 0.139777 -0.216166 -0.28911 -0.21295 -0.284877 -0.21295 -0.284877 -0.209812 -0.280548 -0.284877 -0.350679 -0.280548 -0.345291 0.209842 0.176739 0.206792 0.174194 0.176739 0.139777 0.174194 0.137824 0.206792 0.174194 0.203809 0.171698 0.174194 0.137824 0.171698 0.13587 -0.0490982 0.0184103 -0.0484405 0.0182497 0.0184103 0.0859188 0.0182497 0.0844587 -0.0484405 0.0182497 -0.0475977 0.017791 0.0182497 0.0844587 0.017791 0.0831798 0.0693588 0.121803 0.068321 0.120027 0.068321 0.120027 0.0673775 0.118262 0.167561 0.217736 0.165029 0.214406 0.217735 0.167569 0.214407 0.165034 -0.112345 -0.0475977 -0.110623 -0.0469989 -0.172026 -0.110623 -0.169646 -0.108023 -0.110623 -0.0469989 -0.108023 -0.0464 0.143869 0.182062 0.141822 0.179298 0.141822 0.179298 0.139775 0.176734 0.142801 0.247062 0.140388 0.243174 0.140388 0.243174 0.138021 0.239167 0.243174 0.340654 0.239167 0.335093 0.139775 0.176734 0.137823 0.17419 0.137823 0.17419 0.13587 0.171698 0.0903019 0.132963 0.0889375 0.131019 0.0889375 0.131019 0.0875925 0.12907 0.131019 0.170214 0.12907 0.16763 0.132962 0.0903013 0.131019 0.0889371 0.170213 0.131019 0.167629 0.12907 0.131019 0.0889371 0.12907 0.0875922 0.138021 0.239167 0.13567 0.23524 0.239167 0.335093 0.23524 0.329688 0.13567 0.23524 0.133351 0.231382 0.23524 0.329688 0.231382 0.324371 0.142798 0.0353543 0.140386 0.034607 0.0353543 -0.0728597 0.034607 -0.071931 0.140386 0.034607 0.138018 0.0338691 0.034607 -0.071931 0.0338691 -0.0710175 0.138018 0.0338691 0.135667 0.033139 0.0338691 -0.0710175 0.033139 -0.0701187 0.135667 0.033139 0.133349 0.0324113 0.033139 -0.0701187 0.0324113 -0.069235 -0.297997 -0.222664 -0.293419 -0.219362 -0.293419 -0.219362 -0.28919 -0.21612 -0.356038 -0.28919 -0.350574 -0.284816 -0.28919 -0.21612 -0.284816 -0.212938 -0.350574 -0.284816 -0.345267 -0.280518 -0.284816 -0.212938 -0.280518 -0.209792 0.324368 0.231379 0.319143 0.227596 0.231379 0.133349 0.227596 0.13105 0.319143 0.227596 0.314001 0.223878 0.227596 0.13105 0.223878 0.128902 0.314001 0.223878 0.30894 0.220218 0.223878 0.128902 0.220218 0.126703 0.30894 0.220218 0.303952 0.216605 0.220218 0.126703 0.216605 0.124503 0.303952 0.216605 0.299043 0.213047 0.216605 0.124503 0.213047 0.122396 0.299043 0.213047 0.29422 0.209556 0.213047 0.122396 0.209556 0.120288 0.29422 0.209556 0.289481 0.206123 0.209556 0.120288 0.206123 0.118256 0.289481 0.206123 0.284821 0.202752 0.206123 0.118256 0.202752 0.116224 -0.299828 -0.190372 -0.295354 -0.187626 -0.190372 -0.0767952 -0.187626 -0.0758218 -0.295354 -0.187626 -0.290999 -0.184975 -0.187626 -0.0758218 -0.184975 -0.0748381 0 0.104457 0 0.10282 0.104457 0.206727 0.10282 0.203487 0 0.10282 0 0.101208 0.10282 0.203487 0.101208 0.200298 -0.0748381 0.0368414 -0.0737906 0.0360929 0.0368414 0.147652 0.0360929 0.145261 -0.0737906 0.0360929 -0.0728559 0.0353573 0.0360929 0.145261 0.0353573 0.142801 0.284821 0.202752 0.280233 0.199433 0.202752 0.116224 0.199433 0.114264 0.280233 0.199433 0.275719 0.196174 0.199433 0.114264 0.196174 0.112304 0.275719 0.196174 0.271284 0.192966 0.196174 0.112304 0.192966 0.110413 0.271284 0.192966 0.266922 0.189818 0.192966 0.110413 0.189818 0.108522 0.266922 0.189818 0.26263 0.186721 0.189818 0.108522 0.186721 0.106715 0.26263 0.186721 0.258411 0.183674 0.186721 0.106715 0.183674 0.104909 0.258411 0.183674 0.254251 0.180693 0.183674 0.104909 0.180693 0.103086 0.254251 0.180693 0.25016 0.177666 0.133351 0.231382 0.131051 0.227598 0.231382 0.324371 0.227598 0.319145 0.131051 0.227598 0.128904 0.22388 0.227598 0.319145 0.22388 0.314003 0.128904 0.22388 0.126704 0.22022 0.22388 0.314003 0.22022 0.308943 0.126704 0.22022 0.124504 0.216607 0.22022 0.308943 0.216607 0.303955 0.124504 0.216607 0.122398 0.21305 0.216607 0.303955 0.21305 0.299046 0.122398 0.21305 0.120291 0.20956 0.21305 0.299046 0.20956 0.294224 0.120291 0.20956 0.11826 0.206127 0.20956 0.294224 0.206127 0.289486 0.11826 0.206127 0.116229 0.202757 0.206127 0.289486 0.202757 0.284827 0.200299 0.101209 0.197159 0.0996226 0.101209 2.54026e-16 0.0996226 2.50087e-16 0.197159 0.0996226 0.194067 0.0980591 0.0996226 2.50087e-16 0.0980591 2.4621e-16 0.194067 0.0980591 0.190992 0.0965373 0.0980591 2.4621e-16 0.0965373 2.42393e-16 0.190992 0.0965373 0.188127 0.0950444 0.0965373 2.42393e-16 0.0950444 2.38635e-16 0.116229 0.202757 0.11427 0.19944 0.202757 0.284827 0.19944 0.28024 0.11427 0.19944 0.11231 0.196181 0.19944 0.28024 0.196181 0.275727 0.11231 0.196181 0.11042 0.192974 0.196181 0.275727 0.192974 0.271292 0.11042 0.192974 0.108529 0.189826 0.192974 0.271292 0.189826 0.266931 0.108529 0.189826 0.106723 0.18673 0.189826 0.266931 0.18673 0.262639 0.106723 0.18673 0.104916 0.183683 0.18673 0.262639 0.183683 0.25842 0.104916 0.183683 0.103094 0.180702 0.183683 0.25842 0.180702 0.254259 0.180702 0.254259 0.177673 0.250168 0.25016 0.177666 0.246141 0.174804 0.246141 0.174804 0.242205 0.171973 0.242205 0.171973 0.238334 0.169193 0.238334 0.169193 0.234549 0.166451 -0.0728559 0.0353573 -0.0719265 0.0346105 0.0353573 0.142801 0.0346105 0.140388 -0.0719265 0.0346105 -0.0710126 0.0338727 0.0346105 0.140388 0.0338727 0.138021 -0.0710126 0.0338727 -0.0701139 0.0331425 0.0338727 0.138021 0.0331425 0.13567 -0.0701139 0.0331425 -0.069231 0.0324142 0.0331425 0.13567 0.0324142 0.133351 -0.185918 -0.248391 -0.183014 -0.244551 -0.248391 -0.305562 -0.244551 -0.300807 -0.183014 -0.244551 -0.180219 -0.240792 -0.244551 -0.300807 -0.240792 -0.296182 -0.180219 -0.240792 -0.17754 -0.2371 -0.240792 -0.296182 -0.2371 -0.291626 -0.17754 -0.2371 -0.17478 -0.233455 -0.2371 -0.291626 -0.233455 -0.287141 -0.17478 -0.233455 -0.172005 -0.229882 -0.233455 -0.287141 -0.229882 -0.282717 -0.172005 -0.229882 -0.16964 -0.226355 -0.229882 -0.282717 -0.226355 -0.278352 -0.16964 -0.226355 -0.166964 -0.222869 -0.226355 -0.278352 -0.222869 -0.274037 -0.166964 -0.222869 -0.164288 -0.219393 -0.222869 -0.274037 -0.219393 -0.269777 -0.209812 -0.280548 -0.206574 -0.276336 -0.280548 -0.345291 -0.276336 -0.340068 -0.206574 -0.276336 -0.203603 -0.272277 -0.276336 -0.340068 -0.272277 -0.33497 -0.345267 -0.280518 -0.340053 -0.276321 -0.280518 -0.209792 -0.276321 -0.206561 -0.340053 -0.276321 -0.334961 -0.272267 -0.276321 -0.206561 -0.272267 -0.203594 0.177673 0.250168 0.174811 0.246147 0.174811 0.246147 0.171979 0.24221 0.171979 0.24221 0.169199 0.238339 0.169199 0.238339 0.166456 0.234554 0 0.0838237 0 0.0824881 0.0838237 0.165838 0.0824881 0.163258 0 0.0824881 0 0.0811772 0 0.0811772 0 0.0798543 0.0811772 0.160684 0.0798543 0.158079 0 0.0798543 0 0.0779065 0.0798543 0.158079 0.0779065 0.155813 0.160684 0.236692 0.158079 0.232967 0.236692 0.307504 0.232967 0.302672 0.158079 0.232967 0.155813 0.229327 0.232967 0.302672 0.229327 0.297936 -0.30556 -0.248389 -0.300804 -0.244551 -0.248389 -0.185917 -0.244551 -0.183016 -0.300804 -0.244551 -0.296176 -0.240783 -0.244551 -0.183016 -0.240783 -0.180242 -0.296176 -0.240783 -0.291618 -0.237082 -0.240783 -0.180242 -0.237082 -0.177478 -0.291618 -0.237082 -0.287132 -0.233437 -0.237082 -0.177478 -0.233437 -0.174719 -0.287132 -0.233437 -0.282712 -0.229875 -0.233437 -0.174719 -0.229875 -0.172026 -0.282712 -0.229875 -0.278351 -0.226358 -0.229875 -0.172026 -0.226358 -0.169646 -0.278351 -0.226358 -0.274038 -0.222872 -0.226358 -0.169646 -0.222872 -0.166969 -0.274038 -0.222872 -0.269779 -0.219395 -0.222872 -0.166969 -0.219395 -0.164291 0.133349 0.0324113 0.13105 0.0316775 0.0324113 -0.069235 0.0316775 -0.0683764 0.13105 0.0316775 0.128902 0.0307044 0.0316775 -0.0683764 0.0307044 -0.0674935 -0.0767952 0.0384439 -0.0758218 0.0376147 0.0384439 0.152851 0.0376147 0.150235 -0.0758218 0.0376147 -0.0748381 0.0368414 0.0376147 0.150235 0.0368414 0.147652 0.165841 0.0838249 0.16326 0.0824893 0.0838249 2.10595e-16 0.0824893 2.0733e-16 0.0824893 2.0733e-16 0.0811785 2.04115e-16 0.307509 0.236696 0.302677 0.232971 0.236696 0.160687 0.232971 0.158082 0.302677 0.232971 0.297942 0.229331 0.232971 0.158082 0.229331 0.155816 0.160687 0.0811785 0.158082 0.0798557 0.0811785 2.04115e-16 0.0798557 2.00951e-16 0.158082 0.0798557 0.155816 0.077908 0.0798557 2.00951e-16 0.077908 1.97835e-16 -0.069231 0.0324142 -0.0683737 0.0316794 0.0324142 0.133351 0.0316794 0.131051 -0.0683737 0.0316794 -0.0674925 0.0307055 0.0316794 0.131051 0.0307055 0.128904 0.227434 0.114962 0.223796 0.11309 0.114962 2.87849e-16 0.11309 2.83386e-16 0.223796 0.11309 0.220249 0.111292 0.11309 2.83386e-16 0.111292 2.78993e-16 0.220249 0.111292 0.216778 0.109536 0.111292 2.78993e-16 0.109536 2.74667e-16 0.216778 0.109536 0.21337 0.107814 0.109536 2.74667e-16 0.107814 2.70409e-16 0.21337 0.107814 0.210021 0.106121 0.107814 2.70409e-16 0.106121 2.66217e-16 0.210021 0.106121 0.206727 0.104457 0.106121 2.66217e-16 0.104457 2.62089e-1