# vtk DataFile Version 3.0
#This file was generated by the deal.II library on 2018/12/4 at 0:47:15
ASCII
DATASET UNSTRUCTURED_GRID

POINTS 8248 double
0 0.6875 0
0.0625 0.6875 0
0 0.75 0
0.0625 0.75 0
0.9375 0.6875 0
1 0.6875 0
0.9375 0.75 0
1 0.75 0
0.625 0.9375 0
0.6875 0.9375 0
0.625 1 0
0.6875 1 0
0.6875 0.9375 0
0.75 0.9375 0
0.6875 1 0
0.75 1 0
0 0.875 0
0.0625 0.875 0
0 0.9375 0
0.0625 0.9375 0
0 0.9375 0
0.0625 0.9375 0
0 1 0
0.0625 1 0
0.9375 0.875 0
1 0.875 0
0.9375 0.9375 0
1 0.9375 0
0.9375 0.9375 0
1 0.9375 0
0.9375 1 0
1 1 0
0 0.125 0
0.03125 0.125 0
0 0.15625 0
0.03125 0.15625 0
0.03125 0.125 0
0.0625 0.125 0
0.03125 0.15625 0
0.0625 0.15625 0
0 0.15625 0
0.03125 0.15625 0
0 0.1875 0
0.03125 0.1875 0
0.0625 0 0
0.09375 0 0
0.0625 0.03125 0
0.09375 0.03125 0
0.09375 0 0
0.125 0 0
0.09375 0.03125 0
0.125 0.03125 0
0.0625 0.03125 0
0.09375 0.03125 0
0.0625 0.0625 0
0.09375 0.0625 0
0.09375 0.03125 0
0.125 0.03125 0
0.09375 0.0625 0
0.125 0.0625 0
0.0625 0.0625 0
0.09375 0.0625 0
0.0625 0.09375 0
0.09375 0.09375 0
0.09375 0.0625 0
0.125 0.0625 0
0.09375 0.09375 0
0.125 0.09375 0
0.0625 0.09375 0
0.09375 0.09375 0
0.0625 0.125 0
0.09375 0.125 0
0.09375 0.09375 0
0.125 0.09375 0
0.09375 0.125 0
0.125 0.125 0
0.125 0.03125 0
0.15625 0.03125 0
0.125 0.0625 0
0.15625 0.0625 0
0.1875 0 0
0.21875 0 0
0.1875 0.03125 0
0.21875 0.03125 0
0.21875 0 0
0.25 0 0
0.21875 0.03125 0
0.25 0.03125 0
0.1875 0.03125 0
0.21875 0.03125 0
0.1875 0.0625 0
0.21875 0.0625 0
0.21875 0.03125 0
0.25 0.03125 0
0.21875 0.0625 0
0.25 0.0625 0
0.125 0.0625 0
0.15625 0.0625 0
0.125 0.09375 0
0.15625 0.09375 0
0.15625 0.0625 0
0.1875 0.0625 0
0.15625 0.09375 0
0.1875 0.09375 0
0.15625 0.09375 0
0.1875 0.09375 0
0.15625 0.125 0
0.1875 0.125 0
0.0625 0.125 0
0.09375 0.125 0
0.0625 0.15625 0
0.09375 0.15625 0
0.09375 0.125 0
0.125 0.125 0
0.09375 0.15625 0
0.125 0.15625 0
0.09375 0.15625 0
0.125 0.15625 0
0.09375 0.1875 0
0.125 0.1875 0
0.3125 0 0
0.34375 0 0
0.3125 0.03125 0
0.34375 0.03125 0
0.34375 0 0
0.375 0 0
0.34375 0.03125 0
0.375 0.03125 0
0.3125 0.03125 0
0.34375 0.03125 0
0.3125 0.0625 0
0.34375 0.0625 0
0.34375 0.03125 0
0.375 0.03125 0
0.34375 0.0625 0
0.375 0.0625 0
0.15625 0.125 0
0.1875 0.125 0
0.15625 0.15625 0
0.1875 0.15625 0
0.15625 0.15625 0
0.1875 0.15625 0
0.15625 0.1875 0
0.1875 0.1875 0
0.09375 0.1875 0
0.125 0.1875 0
0.09375 0.21875 0
0.125 0.21875 0
0.09375 0.21875 0
0.125 0.21875 0
0.09375 0.25 0
0.125 0.25 0
0.15625 0.1875 0
0.1875 0.1875 0
0.15625 0.21875 0
0.1875 0.21875 0
0.125 0.21875 0
0.15625 0.21875 0
0.125 0.25 0
0.15625 0.25 0
0.15625 0.21875 0
0.1875 0.21875 0
0.15625 0.25 0
0.1875 0.25 0
0.25 0 0
0.28125 0 0
0.25 0.03125 0
0.28125 0.03125 0
0.28125 0 0
0.3125 0 0
0.28125 0.03125 0
0.3125 0.03125 0
0.25 0.03125 0
0.28125 0.03125 0
0.25 0.0625 0
0.28125 0.0625 0
0.28125 0.03125 0
0.3125 0.03125 0
0.28125 0.0625 0
0.3125 0.0625 0
0.25 0.0625 0
0.28125 0.0625 0
0.25 0.09375 0
0.28125 0.09375 0
0.28125 0.0625 0
0.3125 0.0625 0
0.28125 0.09375 0
0.3125 0.09375 0
0.25 0.09375 0
0.28125 0.09375 0
0.25 0.125 0
0.28125 0.125 0
0.28125 0.09375 0
0.3125 0.09375 0
0.28125 0.125 0
0.3125 0.125 0
0.4375 0 0
0.46875 0 0
0.4375 0.03125 0
0.46875 0.03125 0
0.4375 0.03125 0
0.46875 0.03125 0
0.4375 0.0625 0
0.46875 0.0625 0
0.46875 0.03125 0
0.5 0.03125 0
0.46875 0.0625 0
0.5 0.0625 0
0.40625 0.25 0
0.4375 0.25 0
0.40625 0.28125 0
0.4375 0.28125 0
0.40625 0.28125 0
0.4375 0.28125 0
0.40625 0.3125 0
0.4375 0.3125 0
0.4375 0.25 0
0.46875 0.25 0
0.4375 0.28125 0
0.46875 0.28125 0
0.46875 0.25 0
0.5 0.25 0
0.46875 0.28125 0
0.5 0.28125 0
0.4375 0.28125 0
0.46875 0.28125 0
0.4375 0.3125 0
0.46875 0.3125 0
0.46875 0.28125 0
0.5 0.28125 0
0.46875 0.3125 0
0.5 0.3125 0
0.375 0.3125 0
0.40625 0.3125 0
0.375 0.34375 0
0.40625 0.34375 0
0.40625 0.3125 0
0.4375 0.3125 0
0.40625 0.34375 0
0.4375 0.34375 0
0.375 0.34375 0
0.40625 0.34375 0
0.375 0.375 0
0.40625 0.375 0
0.40625 0.34375 0
0.4375 0.34375 0
0.40625 0.375 0
0.4375 0.375 0
0 0 0
0.03125 0 0
0 0.03125 0
0.03125 0.03125 0
0 0.03125 0
0.03125 0.03125 0
0 0.0625 0
0.03125 0.0625 0
0 0.0625 0
0.03125 0.0625 0
0 0.09375 0
0.03125 0.09375 0
0.03125 0.0625 0
0.0625 0.0625 0
0.03125 0.09375 0
0.0625 0.09375 0
0 0.09375 0
0.03125 0.09375 0
0 0.125 0
0.03125 0.125 0
0.03125 0.09375 0
0.0625 0.09375 0
0.03125 0.125 0
0.0625 0.125 0
0.6875 0 0
0.71875 0 0
0.6875 0.03125 0
0.71875 0.03125 0
0.71875 0 0
0.75 0 0
0.71875 0.03125 0
0.75 0.03125 0
0.6875 0.03125 0
0.71875 0.03125 0
0.6875 0.0625 0
0.71875 0.0625 0
0.71875 0.03125 0
0.75 0.03125 0
0.71875 0.0625 0
0.75 0.0625 0
0.6875 0.0625 0
0.71875 0.0625 0
0.6875 0.09375 0
0.71875 0.09375 0
0.71875 0.0625 0
0.75 0.0625 0
0.71875 0.09375 0
0.75 0.09375 0
0.6875 0.09375 0
0.71875 0.09375 0
0.6875 0.125 0
0.71875 0.125 0
0.71875 0.09375 0
0.75 0.09375 0
0.71875 0.125 0
0.75 0.125 0
0.875 0.125 0
0.90625 0.125 0
0.875 0.15625 0
0.90625 0.15625 0
0.90625 0.125 0
0.9375 0.125 0
0.90625 0.15625 0
0.9375 0.15625 0
0.875 0.15625 0
0.90625 0.15625 0
0.875 0.1875 0
0.90625 0.1875 0
0.9375 0.125 0
0.96875 0.125 0
0.9375 0.15625 0
0.96875 0.15625 0
0.96875 0.125 0
1 0.125 0
0.96875 0.15625 0
1 0.15625 0
0.96875 0.15625 0
1 0.15625 0
0.96875 0.1875 0
1 0.1875 0
0.875 0.1875 0
0.90625 0.1875 0
0.875 0.21875 0
0.90625 0.21875 0
0.875 0.21875 0
0.90625 0.21875 0
0.875 0.25 0
0.90625 0.25 0
0.3125 0.0625 0
0.34375 0.0625 0
0.3125 0.09375 0
0.34375 0.09375 0
0.34375 0.0625 0
0.375 0.0625 0
0.34375 0.09375 0
0.375 0.09375 0
0.3125 0.09375 0
0.34375 0.09375 0
0.3125 0.125 0
0.34375 0.125 0
0.34375 0.09375 0
0.375 0.09375 0
0.34375 0.125 0
0.375 0.125 0
0.53125 0 0
0.5625 0 0
0.53125 0.03125 0
0.5625 0.03125 0
0.5 0.03125 0
0.53125 0.03125 0
0.5 0.0625 0
0.53125 0.0625 0
0.53125 0.03125 0
0.5625 0.03125 0
0.53125 0.0625 0
0.5625 0.0625 0
0.5 0.25 0
0.53125 0.25 0
0.5 0.28125 0
0.53125 0.28125 0
0.53125 0.25 0
0.5625 0.25 0
0.53125 0.28125 0
0.5625 0.28125 0
0.5 0.28125 0
0.53125 0.28125 0
0.5 0.3125 0
0.53125 0.3125 0
0.53125 0.28125 0
0.5625 0.28125 0
0.53125 0.3125 0
0.5625 0.3125 0
0.5625 0.25 0
0.59375 0.25 0
0.5625 0.28125 0
0.59375 0.28125 0
0.5625 0.28125 0
0.59375 0.28125 0
0.5625 0.3125 0
0.59375 0.3125 0
0.59375 0.28125 0
0.625 0.28125 0
0.59375 0.3125 0
0.625 0.3125 0
0.5625 0.3125 0
0.59375 0.3125 0
0.5625 0.34375 0
0.59375 0.34375 0
0.59375 0.3125 0
0.625 0.3125 0
0.59375 0.34375 0
0.625 0.34375 0
0.5625 0.34375 0
0.59375 0.34375 0
0.5625 0.375 0
0.59375 0.375 0
0.59375 0.34375 0
0.625 0.34375 0
0.59375 0.375 0
0.625 0.375 0
0.09375 0.25 0
0.125 0.25 0
0.09375 0.28125 0
0.125 0.28125 0
0.09375 0.28125 0
0.125 0.28125 0
0.09375 0.3125 0
0.125 0.3125 0
0.125 0.25 0
0.15625 0.25 0
0.125 0.28125 0
0.15625 0.28125 0
0.15625 0.25 0
0.1875 0.25 0
0.15625 0.28125 0
0.1875 0.28125 0
0.125 0.28125 0
0.15625 0.28125 0
0.125 0.3125 0
0.15625 0.3125 0
0.15625 0.28125 0
0.1875 0.28125 0
0.15625 0.3125 0
0.1875 0.3125 0
0.1875 0.25 0
0.21875 0.25 0
0.1875 0.28125 0
0.21875 0.28125 0
0.21875 0.25 0
0.25 0.25 0
0.21875 0.28125 0
0.25 0.28125 0
0.1875 0.28125 0
0.21875 0.28125 0
0.1875 0.3125 0
0.21875 0.3125 0
0.21875 0.28125 0
0.25 0.28125 0
0.21875 0.3125 0
0.25 0.3125 0
0.75 0 0
0.78125 0 0
0.75 0.03125 0
0.78125 0.03125 0
0.78125 0 0
0.8125 0 0
0.78125 0.03125 0
0.8125 0.03125 0
0.75 0.03125 0
0.78125 0.03125 0
0.75 0.0625 0
0.78125 0.0625 0
0.78125 0.03125 0
0.8125 0.03125 0
0.78125 0.0625 0
0.8125 0.0625 0
0.84375 0.03125 0
0.875 0.03125 0
0.84375 0.0625 0
0.875 0.0625 0
0.25 0.125 0
0.28125 0.125 0
0.25 0.15625 0
0.28125 0.15625 0
0.28125 0.125 0
0.3125 0.125 0
0.28125 0.15625 0
0.3125 0.15625 0
0.25 0.15625 0
0.28125 0.15625 0
0.25 0.1875 0
0.28125 0.1875 0
0.28125 0.15625 0
0.3125 0.15625 0
0.28125 0.1875 0
0.3125 0.1875 0
0.8125 0.0625 0
0.84375 0.0625 0
0.8125 0.09375 0
0.84375 0.09375 0
0.84375 0.0625 0
0.875 0.0625 0
0.84375 0.09375 0
0.875 0.09375 0
0.8125 0.09375 0
0.84375 0.09375 0
0.8125 0.125 0
0.84375 0.125 0
0.875 0 0
0.90625 0 0
0.875 0.03125 0
0.90625 0.03125 0
0.90625 0 0
0.9375 0 0
0.90625 0.03125 0
0.9375 0.03125 0
0.875 0.03125 0
0.90625 0.03125 0
0.875 0.0625 0
0.90625 0.0625 0
0.90625 0.03125 0
0.9375 0.03125 0
0.90625 0.0625 0
0.9375 0.0625 0
0.875 0.0625 0
0.90625 0.0625 0
0.875 0.09375 0
0.90625 0.09375 0
0.90625 0.0625 0
0.9375 0.0625 0
0.90625 0.09375 0
0.9375 0.09375 0
0.875 0.09375 0
0.90625 0.09375 0
0.875 0.125 0
0.90625 0.125 0
0.90625 0.09375 0
0.9375 0.09375 0
0.90625 0.125 0
0.9375 0.125 0
0.25 0.1875 0
0.28125 0.1875 0
0.25 0.21875 0
0.28125 0.21875 0
0.28125 0.1875 0
0.3125 0.1875 0
0.28125 0.21875 0
0.3125 0.21875 0
0.25 0.21875 0
0.28125 0.21875 0
0.25 0.25 0
0.28125 0.25 0
0.28125 0.21875 0
0.3125 0.21875 0
0.28125 0.25 0
0.3125 0.25 0
0.8125 0.125 0
0.84375 0.125 0
0.8125 0.15625 0
0.84375 0.15625 0
0.8125 0.15625 0
0.84375 0.15625 0
0.8125 0.1875 0
0.84375 0.1875 0
0.8125 0.1875 0
0.84375 0.1875 0
0.8125 0.21875 0
0.84375 0.21875 0
0.8125 0.21875 0
0.84375 0.21875 0
0.8125 0.25 0
0.84375 0.25 0
0.84375 0.21875 0
0.875 0.21875 0
0.84375 0.25 0
0.875 0.25 0
0.40625 0.1875 0
0.4375 0.1875 0
0.40625 0.21875 0
0.4375 0.21875 0
0.40625 0.21875 0
0.4375 0.21875 0
0.40625 0.25 0
0.4375 0.25 0
0.75 0.25 0
0.78125 0.25 0
0.75 0.28125 0
0.78125 0.28125 0
0.78125 0.25 0
0.8125 0.25 0
0.78125 0.28125 0
0.8125 0.28125 0
0.75 0.28125 0
0.78125 0.28125 0
0.75 0.3125 0
0.78125 0.3125 0
0.78125 0.28125 0
0.8125 0.28125 0
0.78125 0.3125 0
0.8125 0.3125 0
0.8125 0.25 0
0.84375 0.25 0
0.8125 0.28125 0
0.84375 0.28125 0
0.84375 0.25 0
0.875 0.25 0
0.84375 0.28125 0
0.875 0.28125 0
0.8125 0.28125 0
0.84375 0.28125 0
0.8125 0.3125 0
0.84375 0.3125 0
0.84375 0.28125 0
0.875 0.28125 0
0.84375 0.3125 0
0.875 0.3125 0
0.875 0.25 0
0.90625 0.25 0
0.875 0.28125 0
0.90625 0.28125 0
0.875 0.28125 0
0.90625 0.28125 0
0.875 0.3125 0
0.90625 0.3125 0
0.625 0 0
0.65625 0 0
0.625 0.03125 0
0.65625 0.03125 0
0.65625 0 0
0.6875 0 0
0.65625 0.03125 0
0.6875 0.03125 0
0.625 0.03125 0
0.65625 0.03125 0
0.625 0.0625 0
0.65625 0.0625 0
0.65625 0.03125 0
[...]
POINT_DATA 8248
SCALARS U double 1
LOOKUP_TABLE default
0 0.235514 0 0.22129 0.235841 1.59323e-16 0.221434 1.4967e-16 -0.130767 0.0635943 -0.121414 0.0618964 0.0635943 0.235912 0.0618964 0.224344 0 0.196499 0 0.185523 0 0.185523 0 0.176266 0.196522 1.32084e-16 0.185532 1.24081e-16 0.185532 1.24081e-16 0.176266 1.16563e-16 0 0.219663 0 0.21225 0.219663 0.420321 0.21225 0.407241 0 0.21225 0 0.205234 0.479141 0.666668 0.463456 0.64546 0.666668 0.796782 0.64546 0.772179 0.463456 0.64546 0.449228 0.624767 0.64546 0.772179 0.624767 0.746826 0.449228 0.624767 0.434466 0.604372 0.624767 0.746826 0.604372 0.722879 0.434466 0.604372 0.420321 0.584644 0.604372 0.722879 0.584644 0.697593 0.772179 0.831354 0.746826 0.80498 0.84586 0.760596 0.818177 0.736257 0.760596 0.609831 0.736257 0.590095 0.818177 0.736257 0.793476 0.7135 0.736257 0.590095 0.7135 0.570737 0.746826 0.80498 0.722879 0.778351 0.80498 0.793476 0.778351 0.765133 0.778351 0.765133 0.750973 0.740265 0.420321 0.584644 0.407241 0.565589 0.584644 0.697593 0.565589 0.675235 0.565589 0.675235 0.546532 0.652979 0.168252 -0.084533 0.162205 -0.0825048 -0.084533 -0.330038 -0.0825048 -0.320139 0.162205 -0.0825048 0.156274 -0.0805946 -0.0825048 -0.320139 -0.0805946 -0.310585 0.750973 0.740265 0.726954 0.715917 0.726954 0.715917 0.702993 0.692808 0.546532 0.652979 0.529461 0.633454 0.529461 0.633454 0.512699 0.612899 0.702993 0.692808 0.681997 0.670156 0.633454 0.681997 0.612899 0.659919 0.681997 0.670156 0.659919 0.650171 0.609831 0.406547 0.590095 0.393005 0.406547 0.168252 0.393005 0.162205 0.590095 0.393005 0.570737 0.379625 0.393005 0.162205 0.379625 0.156274 0.570737 0.379625 0.550374 0.366601 0.379625 0.156274 0.366601 0.150449 0.550374 0.366601 0.532442 0.353971 0.366601 0.150449 0.353971 0.144782 -0.717085 -0.825295 -0.695394 -0.801384 -0.695394 -0.801384 -0.67437 -0.777087 -0.801384 -0.839147 -0.777087 -0.812092 -0.429444 -0.561535 -0.416963 -0.545133 -0.416963 -0.545133 -0.405419 -0.528949 -0.561535 -0.646396 -0.545133 -0.626681 -0.646396 -0.675079 -0.626681 -0.654777 -0.545133 -0.626681 -0.528949 -0.608435 -0.626681 -0.654777 -0.608435 -0.635376 -0.247771 -0.405419 -0.240789 -0.393499 -0.405419 -0.528949 -0.393499 -0.511768 -0.240789 -0.393499 -0.234179 -0.38215 -0.393499 -0.511768 -0.38215 -0.498327 0 0.250351 0 0.241967 0 0.241967 0 0.234865 0 0.234865 0 0.227051 0.234865 0.449228 0.227051 0.434466 0 0.227051 0 0.219663 0.227051 0.434466 0.219663 0.420321 0.168252 0.406547 0.162215 0.393016 0.406547 0.609831 0.393016 0.590108 0.162215 0.393016 0.156292 0.379647 0.393016 0.590108 0.379647 0.570761 0.156292 0.379647 0.150473 0.366632 0.379647 0.570761 0.366632 0.550409 0.150473 0.366632 0.14481 0.354009 0.366632 0.550409 0.354009 0.532489 0.697623 0.584666 0.675272 0.565616 0.584666 0.420335 0.565616 0.407257 0.675272 0.565616 0.653021 0.546562 0.420335 0.21967 0.407257 0.212258 0.21967 2.79621e-16 0.212258 2.71018e-16 0.212258 2.71018e-16 0.205244 2.6268e-16 0.653021 0.546562 0.6335 0.529494 0.6335 0.529494 0.612948 0.512735 0.156274 -0.0805946 0.150449 -0.0788151 -0.0805946 -0.310585 -0.0788151 -0.301391 0.150449 -0.0788151 0.144782 -0.0771663 -0.0788151 -0.301391 -0.0771663 -0.292607 -0.825295 -0.717085 -0.80138 -0.695388 -0.839147 -0.80138 -0.812092 -0.777083 -0.80138 -0.695388 -0.777083 -0.674362 -0.675079 -0.646222 -0.654777 -0.626786 -0.646222 -0.562266 -0.626786 -0.545341 -0.654777 -0.626786 -0.635376 -0.608478 -0.626786 -0.545341 -0.608478 -0.529064 -0.562266 -0.429692 -0.545341 -0.417832 -0.545341 -0.417832 -0.529064 -0.405286 -0.417832 -0.254844 -0.405286 -0.247639 -0.529064 -0.405286 -0.511748 -0.393458 -0.405286 -0.247639 -0.393458 -0.240754 -0.511748 -0.393458 -0.498304 -0.382119 -0.393458 -0.240754 -0.382119 -0.234151 0.512699 0.612899 0.496303 0.593352 0.496303 0.593352 0.480522 0.574719 0.612899 0.659919 0.593352 0.638978 0.659919 0.650171 0.638978 0.629246 0.593352 0.638978 0.574719 0.618681 0.638978 0.629246 0.618681 0.609044 0.650171 0.584589 0.629246 0.564731 0.584589 0.46641 0.564731 0.451054 0.629246 0.564731 0.609044 0.546635 0.564731 0.451054 0.546635 0.435921 0.609831 0.760596 0.590108 0.73627 0.760596 0.84586 0.73627 0.818188 0.590108 0.73627 0.570761 0.713525 0.73627 0.818188 0.713525 0.793498 0.831363 0.772187 0.804999 0.746842 0.532442 0.353971 0.514798 0.341924 0.353971 0.144782 0.341924 0.139291 0.514798 0.341924 0.497713 0.330254 0.341924 0.139291 0.330254 0.134008 0.793498 0.804999 0.765167 0.77838 0.804999 0.746842 0.77838 0.722902 0.765167 0.77838 0.740311 0.751011 0.796782 0.666668 0.772187 0.645465 0.666668 0.479141 0.645465 0.46346 0.772187 0.645465 0.746842 0.624778 0.645465 0.46346 0.624778 0.449235 0.746842 0.624778 0.722902 0.604388 0.624778 0.449235 0.604388 0.434476 0.722902 0.604388 0.697623 0.584666 0.604388 0.434476 0.584666 0.420335 0.497713 0.330254 0.480983 0.31915 0.330254 0.134008 0.31915 0.128923 0.480983 0.31915 0.46641 0.308446 0.31915 0.128923 0.308446 0.124015 0.740311 0.751011 0.715973 0.727002 0.715973 0.727002 0.692874 0.703048 0.692874 0.703048 0.670227 0.682056 0.670227 0.682056 0.650243 0.65998 0.682056 0.6335 0.65998 0.612948 -0.455819 -0.595586 -0.442205 -0.57714 -0.442205 -0.57714 -0.429444 -0.561535 0.466476 0.584666 0.451112 0.564802 0.584666 0.650243 0.564802 0.629316 0.451112 0.564802 0.435971 0.5467 0.564802 0.629316 0.5467 0.609111 0.650243 0.65998 0.629316 0.63904 0.65998 0.612948 0.63904 0.593403 0.629316 0.63904 0.609111 0.618743 0.63904 0.593403 0.618743 0.574773 0.612948 0.512735 0.593403 0.496341 0.593403 0.496341 0.574773 0.480566 -0.330038 -0.084533 -0.32013 -0.0824954 -0.084533 0.168252 -0.0824954 0.162215 -0.32013 -0.0824954 -0.310573 -0.080579 -0.0824954 0.162215 -0.080579 0.156292 0.46641 0.308446 0.451054 0.29806 0.308446 0.124015 0.29806 0.119216 0.29806 0.119216 0.287688 0.114516 0.435921 0.287688 0.420264 0.277704 0.287688 0.114516 0.277704 0.109962 0.420264 0.277704 0.407125 0.268192 0.277704 0.109962 0.268192 0.10554 0.14481 0.354009 0.139321 0.341969 0.354009 0.532489 0.341969 0.514857 0.139321 0.341969 0.134036 0.330302 0.341969 0.514857 0.330302 0.49778 0.134036 0.330302 0.128927 0.319193 0.330302 0.49778 0.319193 0.481053 0.128927 0.319193 0.12399 0.308477 0.319193 0.481053 0.308477 0.466476 0.250351 3.16852e-16 0.241969 3.07104e-16 0.241969 3.07104e-16 0.234868 2.97655e-16 0.449235 0.234868 0.434476 0.227056 0.234868 2.97655e-16 0.227056 2.88497e-16 0.434476 0.227056 0.420335 0.21967 0.227056 2.88497e-16 0.21967 2.79621e-16 0.12399 0.308477 0.119171 0.298082 0.308477 0.466476 0.298082 0.451112 0.119171 0.298082 0.114486 0.287706 0.114486 0.287706 0.109956 0.277726 0.287706 0.435971 0.277726 0.420309 0.109956 0.277726 0.105559 0.268219 0.277726 0.420309 0.268219 0.407167 0.268192 0.10554 0.258143 0.101464 0.258143 0.101464 0.250256 0.0975938 -0.310573 -0.080579 -0.301383 -0.0787986 -0.080579 0.156292 -0.0787986 0.150473 -0.301383 -0.0787986 -0.292614 -0.0771476 -0.0787986 0.150473 -0.0771476 0.14481 -0.208478 -0.339324 -0.202343 -0.328649 -0.339324 -0.440954 -0.328649 -0.427271 -0.202343 -0.328649 -0.196073 -0.318607 -0.328649 -0.427271 -0.318607 -0.414579 -0.196073 -0.318607 -0.190006 -0.307707 -0.190006 -0.307707 -0.184024 -0.298928 -0.475813 -0.497386 -0.461025 -0.482024 -0.234179 -0.38215 -0.227592 -0.371761 -0.38215 -0.498327 -0.371761 -0.48374 -0.498327 -0.572787 -0.48374 -0.555138 -0.572787 -0.597993 -0.555138 -0.579777 -0.48374 -0.555138 -0.46876 -0.538424 -0.555138 -0.579777 -0.538424 -0.561891 -0.538424 -0.561891 -0.52109 -0.544844 -0.52109 -0.544844 -0.506008 -0.528812 -0.432695 -0.452345 -0.41882 -0.437868 -0.597993 -0.572777 -0.579777 -0.555127 -0.572777 -0.498304 -0.555127 -0.483719 -0.579777 -0.555127 -0.561891 -0.538415 -0.555127 -0.483719 -0.538415 -0.468744 -0.498304 -0.382119 -0.483719 -0.371736 -0.382119 -0.234151 -0.371736 -0.227568 -0.561891 -0.538415 -0.544844 -0.521085 -0.544844 -0.521085 -0.528812 -0.506007 0.105559 0.268219 0.101487 0.258172 0.101487 0.258172 0.0976099 0.250277 0 0.180083 0 0.174312 0.180083 0.344835 0.174312 0.333612 0 0.174312 0 0.168715 0.174312 0.333612 0.168715 0.323099 0.450258 0.538488 0.43613 0.520939 -0.440953 -0.339325 -0.427277 -0.32866 -0.339325 -0.208483 -0.32866 -0.202361 -0.427277 -0.32866 -0.41459 -0.318627 -0.32866 -0.202361 -0.318627 -0.196103 -0.497386 -0.475818 -0.482024 -0.461033 -0.318627 -0.196103 -0.307734 -0.190044 -0.307734 -0.190044 -0.29896 -0.184068 -0.452345 -0.432707 -0.437868 -0.418834 0.538488 0.579425 0.520939 0.560349 0.579425 0.570066 0.560349 0.551192 0.520939 0.560349 0.502946 0.542031 0.560349 0.551192 0.542031 0.53333 0.570066 0.510574 0.551192 0.493759 0.551192 0.493759 0.53333 0.477819 0.502946 0.542031 0.48681 0.524546 0.542031 0.53333 0.524546 0.516354 0.48681 0.524546 0.472546 0.508163 0.524546 0.516354 0.508163 0.498648 0.53333 0.477819 0.516354 0.462861 0.510631 0.570133 0.493814 0.551264 0.493814 0.551264 0.477871 0.533408 0.570133 0.579498 0.551264 0.560436 0.579498 0.538562 0.560436 0.521034 0.551264 0.560436 0.533408 0.542138 0.560436 0.521034 0.542138 0.503073 0.477871 0.533408 0.462902 0.516435 0.533408 0.542138 0.516435 0.524678 0.542138 0.503073 0.524678 0.486987 0.516435 0.524678 0.498718 0.508317 0.524678 0.486987 0.508317 0.472794 0.144782 -0.0771663 0.139291 -0.0756434 -0.0771663 -0.292607 -0.0756434 -0.284273 0.139291 -0.0756434 0.134008 -0.0742145 -0.0756434 -0.284273 -0.0742145 -0.276449 0.538562 0.450324 0.521034 0.436221 0.508163 0.498648 0.491387 0.483248 0.415592 0.446995 0.401729 0.432544 0.401729 0.432544 0.389706 0.419132 0.389706 0.419132 0.377785 0.406588 0.377785 0.406588 0.367226 0.394805 0.344865 0.180098 0.33365 0.174332 0.180098 2.31814e-16 0.174332 2.24682e-16 0.33365 0.174332 0.323149 0.168742 0.174332 2.24682e-16 0.168742 2.17769e-16 -0.292614 -0.0771476 -0.284245 -0.0756052 -0.0771476 0.14481 -0.0756052 0.139321 -0.284245 -0.0756052 -0.276219 -0.0741563 -0.0756052 0.139321 -0.0741563 0.134036 -0.276219 -0.0741563 -0.268563 -0.0727887 -0.0741563 0.134036 -0.0727887 0.128927 -0.268563 -0.0727887 -0.261163 -0.0715837 -0.0727887 0.128927 -0.0715837 0.12399 0.498718 0.508317 0.483271 0.49151 -0.261163 -0.0715837 -0.254844 -0.0703996 -0.0715837 0.12399 -0.0703996 0.119171 -0.254844 -0.0703996 -0.247639 -0.0692249 -0.0703996 0.119171 -0.0692249 0.114486 0.461319 0.428681 0.446465 0.41507 0 0.130441 0 0.125866 0.130441 0.249835 0.125866 0.24074 0 0.125866 0 0.117757 0.125866 0.24074 0.117757 0.235514 0.446465 0.41507 0.432552 0.402249 0.432552 0.402249 0.419289 0.390015 0 0.205234 0 0.198631 0.205234 0.393096 0.198631 0.380354 0 0.198631 0 0.192239 0.198631 0.380354 0.192239 0.368224 0.419289 0.390015 0.406728 0.378011 0.406728 0.378011 0.394919 0.367385 0.235514 0.326753 0.228402 0.3165 0.228402 0.3165 0.22129 0.307308 0.249572 0.130358 0.241271 0.125958 0.130358 1.69599e-16 0.125958 1.64381e-16 0.241271 0.125958 0.235841 0.11792 0.125958 1.64381e-16 0.11792 1.59323e-16 0.327164 0.235841 0.316762 0.228637 0.316762 0.228637 0.307482 0.221434 0.393115 0.205244 0.380375 0.198642 0.205244 2.6268e-16 0.198642 2.54598e-16 0.380375 0.198642 0.368248 0.192251 0.198642 2.54598e-16 0.192251 2.46765e-16 0.233569 0.0904458 0.225021 0.0872244 0.225021 0.0872244 0.21857 0.084245 0 0.158027 0 0.152928 0.158027 0.302504 0.152928 0.292822 0 0.152928 0 0.148129 0.0904311 0.233554 0.0871901 0.224982 0.0871901 0.224982 0.0841926 0.218509 0.302612 0.158088 0.292988 0.153022 0.158088 2.04575e-16 0.153022 1.98281e-16 0.153022 1.98281e-16 0.148271 1.9218e-16 0 0.139193 0 0.13428 0 0.13428 0 0.130441 0.139097 1.80537e-16 0.134645 1.74982e-16 0.257726 0.134645 0.249572 0.130358 0.134645 1.74982e-16 0.130358 1.69599e-16 -0.214899 -0.130767 -0.207609 -0.126091 -0.207609 -0.126091 -0.201274 -0.121414 0.06432 0.162413 0.0630838 0.158305 0.162413 0.246295 0.158305 0.240166 0.0630838 0.158305 0.0635943 0.149753 0.158305 0.240166 0.149753 0.235912 0 0.192239 0 0.186066 0.192239 0.368224 0.186066 0.356426 0 0.186066 0 0.180083 0.186066 0.356426 0.180083 0.344835 0.205008 0.0789111 0.198045 0.0764223 0.198045 0.0764223 0.192173 0.0740892 0.192173 0.0740892 0.186315 0.0720538 0.186315 0.0720538 0.181316 0.0701553 0.134008 -0.0742145 0.128923 -0.0728453 -0.0742145 -0.276449 -0.0728453 -0.268869 0.128923 -0.0728453 0.124015 -0.071501 -0.0728453 -0.268869 -0.071501 -0.261431 0.196499 0.272832 0.191011 0.264906 0.191011 0.264906 0.185523 0.257877 0.368248 0.192251 0.356452 0.186079 0.192251 2.46765e-16 0.186079 2.39172e-16 0.356452 0.186079 0.344865 0.180098 0.186079 2.39172e-16 0.180098 2.31814e-16 0.185523 0.257877 0.180894 0.251782 0.180894 0.251782 0.176266 0.245254 0.251782 0.300959 0.245254 0.29312 0.0788391 0.204923 0.0763519 0.197967 0.0763519 0.197967 0.0740266 0.192109 0.0740266 0.192109 0.0720022 0.186269 0.0720022 0.186269 0.0701134 0.181287 0.240166 0.301802 0.235912 0.29397 0.235912 0.29397 0.230128 0.286833 0.230128 0.286833 0.224344 0.279808 0.272866 0.196522 0.264933 0.191027 0.264933 0.191027 0.257897 0.185532 0.124015 -0.071501 0.119216 -0.0702865 -0.071501 -0.261431 -0.0702865 -0.25404 0.119216 -0.0702865 0.114516 -0.0691111 -0.0702865 -0.25404 -0.0691111 -0.247771 0.257897 0.185532 0.251793 0.180899 0.300985 0.251793 0.29312 0.245254 0.251793 0.180899 0.245254 0.176266 0.114516 -0.0691111 0.109962 -0.0679786 -0.0691111 -0.247771 -0.0679786 -0.240789 0.109962 -0.0679786 0.10554 -0.0667141 -0.0679786 -0.240789 -0.0667141 -0.234179 -0.247639 -0.0692249 -0.240754 -0.0679708 -0.0692249 0.114486 -0.0679708 0.109956 -0.240754 -0.0679708 -0.234151 -0.0666944 -0.0679708 0.109956 -0.0666944 0.105559 0.10554 -0.0667141 0.101464 -0.0653092 -0.0667141 -0.234179 -0.0653092 -0.227592 0.101464 -0.0653092 0.0975938 -0.0638252 -0.0653092 -0.227592 -0.0638252 -0.220411 0.380955 0.250256 0.36804 0.24168 0.250256 0.0975938 0.24168 0.0940085 0.36804 0.24168 0.35598 0.233569 0.24168 0.0940085 0.233569 0.0904458 0.0975938 -0.0638252 0.0940085 -0.062403 -0.0638252 -0.220411 -0.062403 -0.214045 0.0940085 -0.062403 0.0904458 -0.0610224 -0.062403 -0.214045 -0.0610224 -0.208478 0.0904458 -0.0610224 0.0872244 -0.0595594 -0.0610224 -0.208478 -0.0595594 -0.202343 0.0872244 -0.0595594 0.084245 -0.0579162 -0.0595594 -0.202343 -0.0579162 -0.196073 0.333853 0.21857 0.322831 0.211613 0.21857 0.084245 0.211613 0.0815697 0.322831 0.211613 0.312608 0.205008 0.211613 0.0815697 0.205008 0.0789111 0.084245 -0.0579162 0.0815697 -0.056209 -0.0579162 -0.196073 -0.056209 -0.190006 0.0815697 -0.056209 0.0789111 -0.0544963 -0.056209 -0.190006 -0.0544963 -0.184024 -0.184024 -0.298928 -0.178262 -0.289308 -0.298928 -0.388999 -0.289308 -0.376487 -0.178262 -0.289308 -0.172529 -0.279977 -0.289308 -0.376487 -0.279977 -0.364396 -0.172529 -0.279977 -0.166922 -0.271015 -0.279977 -0.364396 -0.271015 -0.352265 -0.166922 -0.271015 -0.161428 -0.262287 -0.271015 -0.352265 -0.262287 -0.341657 0 0.110645 0 0.11114 0.110645 0.22129 0.11114 0.213295 0 0.11114 0 0.108118 0.11114 0.213295 0.108118 0.207193 0.22129 0.307308 0.213295 0.297563 0.307308 0.367226 0.297563 0.355145 0.213295 0.297563 0.207193 0.288475 0.297563 0.355145 0.288475 0.344897 0 0.108118 0 0.104738 0.108118 0.207193 0.104738 0.200981 0 0.104738 0 0.0982495 0.104738 0.200981 0.0982495 0.196499 0.207193 0.288475 0.200981 0.280392 0.288475 0.344897 0.280392 0.335082 0.200981 0.280392 0.196499 0.272832 0.280392 0.335082 0.272832 0.326097 -0.234151 -0.0666944 -0.227568 -0.0652874 -0.0666944 0.105559 -0.0652874 0.101487 -0.227568 -0.0652874 -0.220393 -0.0638093 -0.0652874 0.101487 -0.0638093 0.0976099 -0.220393 -0.0638093 -0.214037 -0.0623986 -0.0638093 0.0976099 -0.0623986 0.0940114 -0.214037 -0.0623986 -0.208483 -0.0610328 -0.0623986 0.0940114 -0.0610328 0.0904311 0.0976099 0.250277 0.0940114 0.241686 0.250277 0.380987 0.241686 0.368058 0.0940114 0.241686 0.0904311 0.233554 0.241686 0.368058 0.233554 0.355975 0 0.168715 0 0.163286 0.168715 0.323099 0.163286 0.31278 0 0.163286 0 0.158027 0.163286 0.31278 0.158027 0.302504 -0.208483 -0.0610328 -0.202361 -0.0595857 -0.0610328 0.0904311 -0.0595857 0.0871901 -0.202361 -0.0595857 -0.196103 -0.0579569 -0.0595857 0.0871901 -0.0579569 0.0841926 -0.196103 -0.0579569 -0.190044 -0.0562607 -0.0579569 0.0841926 -0.0562607 0.0815039 -0.190044 -0.0562607 -0.184068 -0.0545544 -0.0562607 0.0815039 -0.0545544 0.0788391 0.0841926 0.218509 0.0815039 0.211535 0.218509 0.333791 0.211535 0.322749 0.0815039 0.211535 0.0788391 0.204923 0.211535 0.322749 0.204923 0.312519 -0.38902 -0.29896 -0.376511 -0.289344 -0.29896 -0.184068 -0.289344 -0.17831 -0.376511 -0.289344 -0.364423 -0.280016 -0.289344 -0.17831 -0.280016 -0.172578 -0.364423 -0.280016 -0.352297 -0.271058 -0.280016 -0.172578 -0.271058 -0.166972 -0.352297 -0.271058 -0.341699 -0.26234 -0.271058 -0.166972 -0.26234 -0.161484 0.367385 0.307482 0.355253 0.297675 0.307482 0.221434 0.297675 0.213387 0.355253 0.297675 0.34497 0.288547 0.297675 0.213387 0.288547 0.207251 0.221434 0.110717 0.213387 0.111191 0.110717 1.4967e-16 0.111191 1.45065e-16 0.213387 0.111191 0.207251 0.10815 0.111191 1.45065e-16 0.10815 1.40602e-16 0.34497 0.288547 0.335134 0.28044 0.288547 0.207251 0.28044 0.201017 0.335134 0.28044 0.326141 0.272866 0.28044 0.201017 0.272866 0.196522 0.207251 0.10815 0.201017 0.104758 0.10815 1.40602e-16 0.104758 1.36276e-16 0.201017 0.104758 0.196522 0.0982612 0.104758 1.36276e-16 0.0982612 1.32084e-16 0.323149 0.168742 0.312853 0.163326 0.168742 2.17769e-16 0.163326 2.11069e-16 0.312853 0.163326 0.302612 0.158088 0.163326 2.11069e-16 0.158088 2.04575e-16 0 0.148129 0 0.143633 0.148129 0.28419 0.143633 0.274906 0 0.143633 0 0.139193 0.143633 0.274906 0.139193 0.266225 0.28419 0.395616 0.274906 0.382364 0.395616 0.472546 0.382364 0.456284 0.274906 0.382364 0.266225 0.369971 0.382364 0.456284 0.369971 0.441963 0.266225 0.369971 0.257368 0.358531 0.369971 0.441963 0.358531 0.427892 0.257368 0.358531 0.249835 0.347989 0.358531 0.427892 0.347989 0.415592 0.467784 0.419485 0.452869 0.405579 0.419485 0.333853 0.405579 0.322831 0.452869 0.405579 0.438646 0.392541 0.405579 0.322831 0.392541 0.312608 0.438646 0.392541 0.424941 0.380181 0.392541 0.312608 0.380181 0.302226 0.424941 0.380181 0.41185 0.368452 0.380181 0.302226 0.368452 0.293126 0.41185 0.368452 0.399538 0.357551 0.368452 0.293126 0.357551 0.284279 0.399538 0.357551 0.387904 0.347609 0.357551 0.284279 0.347609 0.276476 0.276476 0.181316 0.267691 0.175978 0.181316 0.0701553 0.175978 0.0684387 0.267691 0.175978 0.260363 0.1711 0.175978 0.0684387 0.1711 0.0668824 0.0701553 -0.0473629 0.0684387 -0.0454661 -0.0473629 -0.161428 -0.0454661 -0.156004 0.0684387 -0.0454661 0.0668824 -0.0435038 -0.0454661 -0.156004 -0.0435038 -0.150635 0.260363 0.1711 0.253323 0.166692 0.1711 0.0668824 0.166692 0.0655723 0.253323 0.166692 0.246682 0.162616 0.166692 0.0655723 0.162616 0.0644883 0.0668824 -0.0435038 0.0655723 -0.0414675 -0.0435038 -0.150635 -0.0414675 -0.145327 0.0655723 -0.0414675 0.0644883 -0.0393691 -0.0414675 -0.145327 -0.0393691 -0.140121 -0.161428 -0.262287 -0.156004 -0.253775 -0.262287 -0.341657 -0.253775 -0.3305 -0.156004 -0.253775 -0.150635 -0.245346 -0.253775 -0.3305 -0.245346 -0.319579 -0.341657 -0.392637 -0.3305 -0.3794 -0.392637 -0.409928 -0.3794 -0.396279 -0.3305 -0.3794 -0.319579 -0.36685 -0.3794 -0.396279 -0.36685 -0.383136 -0.150635 -0.245346 -0.145327 -0.237118 -0.245346 -0.319579 -0.237118 -0.309032 -0.145327 -0.237118 -0.140121 -0.229151 -0.237118 -0.309032 -0.229151 -0.298891 -0.319579 -0.36685 -0.309032 -0.354807 -0.36685 -0.383136 -0.354807 -0.370584 -0.309032 -0.354807 -0.298891 -0.34328 -0.354807 -0.370584 -0.34328 -0.358595 0.246682 0.162616 0.240448 0.15886 0.162616 0.0644883 0.15886 0.0635944 0.240448 0.15886 0.234641 0.155425 0.15886 0.0635944 0.155425 0.0628712 0.0644883 -0.0393691 0.0635944 -0.037245 -0.0393691 -0.140121 -0.037245 -0.135071 0.0635944 -0.037245 0.0628712 -0.0351383 -0.037245 -0.135071 -0.0351383 -0.130239 0.234641 0.155425 0.229285 0.152331 0.155425 0.0628712 0.152331 0.0623126 0.229285 0.152331 0.224344 0.14956