# vtk DataFile Version 3.0
#This file was generated by the deal.II library on 2018/12/4 at 0:47:15
ASCII
DATASET UNSTRUCTURED_GRID

POINTS 1552 double
0.625 0.875 0
0.75 0.875 0
0.625 1 0
0.75 1 0
0.25 0.625 0
0.375 0.625 0
0.25 0.75 0
0.375 0.75 0
0.125 0.75 0
0.25 0.75 0
0.125 0.875 0
0.25 0.875 0
0 0.875 0
0.125 0.875 0
0 1 0
0.125 1 0
0.125 0.875 0
0.25 0.875 0
0.125 1 0
0.25 1 0
0.625 0.625 0
0.75 0.625 0
0.625 0.75 0
0.75 0.75 0
0.75 0.75 0
0.875 0.75 0
0.75 0.875 0
0.875 0.875 0
0.75 0.875 0
0.875 0.875 0
0.75 1 0
0.875 1 0
0.875 0.875 0
1 0.875 0
0.875 1 0
1 1 0
0 0.125 0
0.0625 0.125 0
0 0.1875 0
0.0625 0.1875 0
0.0625 0.125 0
0.125 0.125 0
0.0625 0.1875 0
0.125 0.1875 0
0 0.1875 0
0.0625 0.1875 0
0 0.25 0
0.0625 0.25 0
0.0625 0.1875 0
0.125 0.1875 0
0.0625 0.25 0
0.125 0.25 0
0.25 0 0
0.3125 0 0
0.25 0.0625 0
0.3125 0.0625 0
0.3125 0 0
0.375 0 0
0.3125 0.0625 0
0.375 0.0625 0
0.25 0.0625 0
0.3125 0.0625 0
0.25 0.125 0
0.3125 0.125 0
0.3125 0.0625 0
0.375 0.0625 0
0.3125 0.125 0
0.375 0.125 0
0.375 0.25 0
0.4375 0.25 0
0.375 0.3125 0
0.4375 0.3125 0
0.4375 0.25 0
0.5 0.25 0
0.4375 0.3125 0
0.5 0.3125 0
0.375 0.3125 0
0.4375 0.3125 0
0.375 0.375 0
0.4375 0.375 0
0 0 0
0.0625 0 0
0 0.0625 0
0.0625 0.0625 0
0 0.0625 0
0.0625 0.0625 0
0 0.125 0
0.0625 0.125 0
0.625 0 0
0.6875 0 0
0.625 0.0625 0
0.6875 0.0625 0
0.6875 0 0
0.75 0 0
0.6875 0.0625 0
0.75 0.0625 0
0.625 0.0625 0
0.6875 0.0625 0
0.625 0.125 0
0.6875 0.125 0
0.6875 0.0625 0
0.75 0.0625 0
0.6875 0.125 0
0.75 0.125 0
0.875 0.125 0
0.9375 0.125 0
0.875 0.1875 0
0.9375 0.1875 0
0.9375 0.125 0
1 0.125 0
0.9375 0.1875 0
1 0.1875 0
0.875 0.1875 0
0.9375 0.1875 0
0.875 0.25 0
0.9375 0.25 0
0.9375 0.1875 0
1 0.1875 0
0.9375 0.25 0
1 0.25 0
0.5 0.25 0
0.5625 0.25 0
0.5 0.3125 0
0.5625 0.3125 0
0.5625 0.25 0
0.625 0.25 0
0.5625 0.3125 0
0.625 0.3125 0
0.5625 0.3125 0
0.625 0.3125 0
0.5625 0.375 0
0.625 0.375 0
0 0.25 0
0.0625 0.25 0
0 0.3125 0
0.0625 0.3125 0
0.0625 0.25 0
0.125 0.25 0
0.0625 0.3125 0
0.125 0.3125 0
0 0.3125 0
0.0625 0.3125 0
0 0.375 0
0.0625 0.375 0
0.125 0.25 0
0.1875 0.25 0
0.125 0.3125 0
0.1875 0.3125 0
0.1875 0.25 0
0.25 0.25 0
0.1875 0.3125 0
0.25 0.3125 0
0.25 0.125 0
0.3125 0.125 0
0.25 0.1875 0
0.3125 0.1875 0
0.3125 0.125 0
0.375 0.125 0
0.3125 0.1875 0
0.375 0.1875 0
0.25 0.1875 0
0.3125 0.1875 0
0.25 0.25 0
0.3125 0.25 0
0.3125 0.1875 0
0.375 0.1875 0
0.3125 0.25 0
0.375 0.25 0
0.375 0.1875 0
0.4375 0.1875 0
0.375 0.25 0
0.4375 0.25 0
0.75 0.25 0
0.8125 0.25 0
0.75 0.3125 0
0.8125 0.3125 0
0.8125 0.25 0
0.875 0.25 0
0.8125 0.3125 0
0.875 0.3125 0
0.875 0.25 0
0.9375 0.25 0
0.875 0.3125 0
0.9375 0.3125 0
0.9375 0.25 0
1 0.25 0
0.9375 0.3125 0
1 0.3125 0
0.9375 0.3125 0
1 0.3125 0
0.9375 0.375 0
1 0.375 0
0.25 0.25 0
0.3125 0.25 0
0.25 0.3125 0
0.3125 0.3125 0
0.3125 0.25 0
0.375 0.25 0
0.3125 0.3125 0
0.375 0.3125 0
0.25 0.3125 0
0.3125 0.3125 0
0.25 0.375 0
0.3125 0.375 0
0.3125 0.3125 0
0.375 0.3125 0
0.3125 0.375 0
0.375 0.375 0
0.625 0.125 0
0.6875 0.125 0
0.625 0.1875 0
0.6875 0.1875 0
0.6875 0.125 0
0.75 0.125 0
0.6875 0.1875 0
0.75 0.1875 0
0.625 0.1875 0
0.6875 0.1875 0
0.625 0.25 0
0.6875 0.25 0
0.6875 0.1875 0
0.75 0.1875 0
0.6875 0.25 0
0.75 0.25 0
0.9375 0 0
1 0 0
0.9375 0.0625 0
1 0.0625 0
0.9375 0.0625 0
1 0.0625 0
0.9375 0.125 0
1 0.125 0
0.625 0.25 0
0.6875 0.25 0
0.625 0.3125 0
0.6875 0.3125 0
0.6875 0.25 0
0.75 0.25 0
0.6875 0.3125 0
0.75 0.3125 0
0.625 0.3125 0
0.6875 0.3125 0
0.625 0.375 0
0.6875 0.375 0
0.6875 0.3125 0
0.75 0.3125 0
0.6875 0.375 0
0.75 0.375 0
0 0.625 0
0.0625 0.625 0
0 0.6875 0
0.0625 0.6875 0
0 0.6875 0
0.0625 0.6875 0
0 0.75 0
0.0625 0.75 0
0.9375 0.625 0
1 0.625 0
0.9375 0.6875 0
1 0.6875 0
0.9375 0.6875 0
1 0.6875 0
0.9375 0.75 0
1 0.75 0
0.25 0.375 0
0.3125 0.375 0
0.25 0.4375 0
0.3125 0.4375 0
0.3125 0.375 0
0.375 0.375 0
0.3125 0.4375 0
0.375 0.4375 0
0.25 0.4375 0
0.3125 0.4375 0
0.25 0.5 0
0.3125 0.5 0
0.3125 0.4375 0
0.375 0.4375 0
0.3125 0.5 0
0.375 0.5 0
0.3125 0.5 0
0.375 0.5 0
0.3125 0.5625 0
0.375 0.5625 0
0.25 0.5625 0
0.3125 0.5625 0
0.25 0.625 0
0.3125 0.625 0
0.3125 0.5625 0
0.375 0.5625 0
0.3125 0.625 0
0.375 0.625 0
0.375 0.5 0
0.4375 0.5 0
0.375 0.5625 0
0.4375 0.5625 0
0.375 0.5625 0
0.4375 0.5625 0
0.375 0.625 0
0.4375 0.625 0
0.4375 0.5625 0
0.5 0.5625 0
0.4375 0.625 0
0.5 0.625 0
0.375 0.375 0
0.4375 0.375 0
0.375 0.4375 0
0.4375 0.4375 0
0.4375 0.375 0
0.5 0.375 0
0.4375 0.4375 0
0.5 0.4375 0
0.375 0.4375 0
0.4375 0.4375 0
0.375 0.5 0
0.4375 0.5 0
0.4375 0.4375 0
0.5 0.4375 0
0.4375 0.5 0
0.5 0.5 0
0.375 0.625 0
0.4375 0.625 0
0.375 0.6875 0
0.4375 0.6875 0
0.4375 0.625 0
0.5 0.625 0
0.4375 0.6875 0
0.5 0.6875 0
0.375 0.6875 0
0.4375 0.6875 0
0.375 0.75 0
0.4375 0.75 0
0 0.75 0
0.0625 0.75 0
0 0.8125 0
0.0625 0.8125 0
0.0625 0.75 0
0.125 0.75 0
0.0625 0.8125 0
0.125 0.8125 0
0 0.8125 0
0.0625 0.8125 0
0 0.875 0
0.0625 0.875 0
0.0625 0.8125 0
0.125 0.8125 0
0.0625 0.875 0
0.125 0.875 0
0.5 0.375 0
0.5625 0.375 0
0.5 0.4375 0
0.5625 0.4375 0
0.5625 0.375 0
0.625 0.375 0
0.5625 0.4375 0
0.625 0.4375 0
0.5 0.4375 0
0.5625 0.4375 0
0.5 0.5 0
0.5625 0.5 0
0.5625 0.4375 0
0.625 0.4375 0
0.5625 0.5 0
0.625 0.5 0
0.625 0.375 0
0.6875 0.375 0
0.625 0.4375 0
0.6875 0.4375 0
0.6875 0.375 0
0.75 0.375 0
0.6875 0.4375 0
0.75 0.4375 0
0.625 0.4375 0
0.6875 0.4375 0
0.625 0.5 0
0.6875 0.5 0
0.6875 0.4375 0
0.75 0.4375 0
0.6875 0.5 0
0.75 0.5 0
0 0.375 0
0.0625 0.375 0
0 0.4375 0
0.0625 0.4375 0
0.0625 0.375 0
0.125 0.375 0
0.0625 0.4375 0
0.125 0.4375 0
0 0.4375 0
0.0625 0.4375 0
0 0.5 0
0.0625 0.5 0
0.0625 0.4375 0
0.125 0.4375 0
0.0625 0.5 0
0.125 0.5 0
0.5625 0.5 0
0.625 0.5 0
0.5625 0.5625 0
0.625 0.5625 0
0.5 0.5625 0
0.5625 0.5625 0
0.5 0.625 0
0.5625 0.625 0
0.5625 0.5625 0
0.625 0.5625 0
0.5625 0.625 0
0.625 0.625 0
0.625 0.5 0
0.6875 0.5 0
0.625 0.5625 0
0.6875 0.5625 0
0.625 0.5625 0
0.6875 0.5625 0
0.625 0.625 0
0.6875 0.625 0
0.6875 0.5625 0
0.75 0.5625 0
0.6875 0.625 0
0.75 0.625 0
0.5 0.625 0
0.5625 0.625 0
0.5 0.6875 0
0.5625 0.6875 0
0.5625 0.625 0
0.625 0.625 0
0.5625 0.6875 0
0.625 0.6875 0
0.5625 0.6875 0
0.625 0.6875 0
0.5625 0.75 0
0.625 0.75 0
0.125 0.375 0
0.1875 0.375 0
0.125 0.4375 0
0.1875 0.4375 0
0.1875 0.375 0
0.25 0.375 0
0.1875 0.4375 0
0.25 0.4375 0
0.125 0.4375 0
0.1875 0.4375 0
0.125 0.5 0
0.1875 0.5 0
0.1875 0.4375 0
0.25 0.4375 0
0.1875 0.5 0
0.25 0.5 0
0.75 0.375 0
0.8125 0.375 0
0.75 0.4375 0
0.8125 0.4375 0
0.8125 0.375 0
0.875 0.375 0
0.8125 0.4375 0
0.875 0.4375 0
0.75 0.4375 0
0.8125 0.4375 0
0.75 0.5 0
0.8125 0.5 0
0.8125 0.4375 0
0.875 0.4375 0
0.8125 0.5 0
0.875 0.5 0
0.875 0.75 0
0.9375 0.75 0
0.875 0.8125 0
0.9375 0.8125 0
0.9375 0.75 0
1 0.75 0
0.9375 0.8125 0
1 0.8125 0
0.875 0.8125 0
0.9375 0.8125 0
0.875 0.875 0
0.9375 0.875 0
0.9375 0.8125 0
1 0.8125 0
0.9375 0.875 0
1 0.875 0
0.875 0.375 0
0.9375 0.375 0
0.875 0.4375 0
0.9375 0.4375 0
0.9375 0.375 0
1 0.375 0
0.9375 0.4375 0
1 0.4375 0
0.875 0.4375 0
0.9375 0.4375 0
0.875 0.5 0
0.9375 0.5 0
0.9375 0.4375 0
1 0.4375 0
0.9375 0.5 0
1 0.5 0
0 0.5 0
0.0625 0.5 0
0 0.5625 0
0.0625 0.5625 0
0.0625 0.5 0
0.125 0.5 0
0.0625 0.5625 0
0.125 0.5625 0
0 0.5625 0
0.0625 0.5625 0
0 0.625 0
0.0625 0.625 0
0.0625 0.5625 0
0.125 0.5625 0
0.0625 0.625 0
0.125 0.625 0
0.125 0.5 0
0.1875 0.5 0
0.125 0.5625 0
0.1875 0.5625 0
0.1875 0.5 0
0.25 0.5 0
0.1875 0.5625 0
0.25 0.5625 0
0.125 0.5625 0
0.1875 0.5625 0
0.125 0.625 0
0.1875 0.625 0
0.1875 0.5625 0
0.25 0.5625 0
0.1875 0.625 0
0.25 0.625 0
0.125 0.625 0
0.1875 0.625 0
0.125 0.6875 0
0.1875 0.6875 0
0.1875 0.625 0
0.25 0.625 0
0.1875 0.6875 0
0.25 0.6875 0
0.125 0.6875 0
0.1875 0.6875 0
0.125 0.75 0
0.1875 0.75 0
0.1875 0.6875 0
0.25 0.6875 0
0.1875 0.75 0
0.25 0.75 0
0.25 0.75 0
0.3125 0.75 0
0.25 0.8125 0
0.3125 0.8125 0
0.3125 0.75 0
0.375 0.75 0
0.3125 0.8125 0
0.375 0.8125 0
0.25 0.8125 0
0.3125 0.8125 0
0.25 0.875 0
0.3125 0.875 0
0.3125 0.8125 0
0.375 0.8125 0
0.3125 0.875 0
0.375 0.875 0
0.375 0.75 0
0.4375 0.75 0
0.375 0.8125 0
0.4375 0.8125 0
0.4375 0.75 0
0.5 0.75 0
0.4375 0.8125 0
0.5 0.8125 0
0.375 0.8125 0
0.4375 0.8125 0
0.375 0.875 0
0.4375 0.875 0
0.4375 0.8125 0
0.5 0.8125 0
0.4375 0.875 0
0.5 0.875 0
0.25 0.875 0
0.3125 0.875 0
0.25 0.9375 0
0.3125 0.9375 0
0.3125 0.875 0
0.375 0.875 0
0.3125 0.9375 0
0.375 0.9375 0
0.25 0.9375 0
0.3125 0.9375 0
0.25 1 0
0.3125 1 0
0.3125 0.9375 0
0.375 0.9375 0
0.3125 1 0
0.375 1 0
0.375 0.875 0
0.4375 0.875 0
0.375 0.9375 0
0.4375 0.9375 0
0.4375 0.875 0
0.5 0.875 0
0.4375 0.9375 0
0.5 0.9375 0
0.375 0.9375 0
0.4375 0.9375 0
0.375 1 0
0.4375 1 0
0.4375 0.9375 0
0.5 0.9375 0
0.4375 1 0
0.5 1 0
0.75 0.5 0
0.8125 0.5 0
0.75 0.5625 0
0.8125 0.5625 0
0.8125 0.5 0
0.875 0.5 0
0.8125 0.5625 0
0.875 0.5625 0
0.75 0.5625 0
0.8125 0.5625 0
0.75 0.625 0
0.8125 0.625 0
0.8125 0.5625 0
0.875 0.5625 0
0.8125 0.625 0
0.875 0.625 0
0.875 0.5 0
0.9375 0.5 0
0.875 0.5625 0
0.9375 0.5625 0
0.9375 0.5 0
1 0.5 0
0.9375 0.5625 0
1 0.5625 0
0.875 0.5625 0
0.9375 0.5625 0
0.875 0.625 0
0.9375 0.625 0
0.9375 0.5625 0
1 0.5625 0
0.9375 0.625 0
1 0.625 0
0.75 0.625 0
0.8125 0.625 0
0.75 0.6875 0
0.8125 0.6875 0
0.8125 0.625 0
0.875 0.625 0
0.8125 0.6875 0
0.875 0.6875 0
0.75 0.6875 0
0.8125 0.6875 0
0.75 0.75 0
0.8125 0.75 0
0.8125 0.6875 0
0.875 0.6875 0
0.8125 0.75 0
0.875 0.75 0
0.5 0.75 0
0.5625 0.75 0
0.5 0.8125 0
0.5625 0.8125 0
0.5625 0.75 0
0.625 0.75 0
0.5625 0.8125 0
0.625 0.8125 0
0.5 0.8125 0
0.5625 0.8125 0
0.5 0.875 0
0.5625 0.875 0
0.5625 0.8125 0
0.625 0.8125 0
0.5625 0.875 0
0.625 0.875 0
0.625 0.75 0
0.6875 0.75 0
0.625 0.8125 0
0.6875 0.8125 0
0.6875 0.75 0
0.75 0.75 0
0.6875 0.8125 0
0.75 0.8125 0
0.625 0.8125 0
0.6875 0.8125 0
0.625 0.875 0
0.6875 0.875 0
0.6875 0.8125 0
0.75 0.8125 0
0.6875 0.875 0
0.75 0.875 0
0.5 0.875 0
0.5625 0.875 0
0.5 0.9375 0
0.5625 0.9375 0
0.5625 0.875 0
0.625 0.875 0
0.5625 0.9375 0
0.625 0.9375 0
0.5 0.9375 0
0.5625 0.9375 0
0.5 1 0
0.5625 1 0
0.5625 0.9375 0
0.625 0.9375 0
0.5625 1 0
0.625 1 0
0.4375 0.3125 0
0.46875 0.3125 0
0.4375 0.34375 0
0.46875 0.34375 0
[...]
POINT_DATA 1552
SCALARS U double 1
LOOKUP_TABLE default
-0.140321 0.255571 -0.128922 0.238217 0.308355 -0.186652 0.286886 -0.164085 0.381082 0.286886 0.341096 0.252932 0 0.341096 0 0.311245 0.341096 0.252932 0.311245 0.238217 -0.186611 0.308453 -0.163701 0.286921 0.286921 0.381417 0.255571 0.341292 0.255571 0.341292 0.238217 0.311245 0.341292 1.40251e-16 0.311245 1.23771e-16 0 0.438015 0 0.406329 0.438015 0.726441 0.406329 0.670457 0 0.406329 0 0.377885 0.406329 0.670457 0.377885 0.629564 0.647541 0.178656 0.595664 0.162921 0.178656 -0.350447 0.162921 -0.326 0.595664 0.162921 0.550003 0.147881 0.162921 -0.326 0.147881 -0.304251 -0.274804 -0.584681 -0.259212 -0.545703 -0.584681 -0.703909 -0.545703 -0.658342 -0.259212 -0.545703 -0.243936 -0.508811 0 0.50877 0 0.467419 0 0.467419 0 0.438015 -0.350447 0.178656 -0.326062 0.162847 0.178656 0.647541 0.162847 0.595714 -0.326062 0.162847 -0.305379 0.148337 0.162847 0.595714 0.148337 0.550094 0.726448 0.438016 0.670466 0.40633 0.438016 2.96912e-16 0.40633 2.78923e-16 0.670466 0.40633 0.62957 0.377886 0.40633 2.78923e-16 0.377886 2.62024e-16 -0.703909 -0.586863 -0.658342 -0.545926 -0.586863 -0.275001 -0.545926 -0.259398 -0.545926 -0.259398 -0.508844 -0.243973 0 0.377885 0 0.350259 0.377885 0.629564 0.350259 0.585921 0 0.350259 0 0.324002 0.629564 0.670347 0.585921 0.61921 0.670347 0.475968 0.61921 0.439134 0.550003 0.147881 0.507844 0.134504 0.147881 -0.304251 0.134504 -0.291482 0.507844 0.134504 0.475968 0.121777 0.134504 -0.291482 0.121777 -0.274804 -0.291482 -0.61844 -0.274804 -0.584681 0.476075 0.670374 0.4392 0.619225 0.670374 0.62957 0.619225 0.585923 0.62957 0.377886 0.585923 0.350259 0.377886 2.62024e-16 0.350259 2.46148e-16 0.350259 2.46148e-16 0.324 2.31235e-16 0.475968 0.121777 0.439134 0.110705 0.121777 -0.274804 0.110705 -0.259212 0.439134 0.110705 0.40607 0.100203 0.110705 -0.259212 0.100203 -0.243936 -0.305379 0.148337 -0.286895 0.134963 0.148337 0.550094 0.134963 0.507994 -0.286895 0.134963 -0.275001 0.122341 0.134963 0.507994 0.122341 0.476075 0.50877 3.36445e-16 0.46742 3.16061e-16 0.46742 3.16061e-16 0.438016 2.96912e-16 -0.275001 0.122341 -0.259398 0.110735 0.122341 0.476075 0.110735 0.4392 -0.259398 0.110735 -0.243973 0.100187 0.110735 0.4392 0.100187 0.406073 0 0.248154 0 0.233331 0 0.233331 0 0.226858 0.24818 1.80086e-16 0.233397 1.69175e-16 0.233397 1.69175e-16 0.226955 1.58925e-16 0.40607 0.100203 0.377656 0.0915096 0.100203 -0.243936 0.0915096 -0.229395 0.377656 0.0915096 0.351222 0.0846082 0.0915096 -0.229395 0.0846082 -0.215857 0.0846082 -0.215857 0.0787903 -0.203988 0.327037 0.0787903 0.308355 0.0608513 0.0787903 -0.203988 0.0608513 -0.186652 -0.215857 -0.447574 -0.203988 -0.421685 -0.203988 -0.421685 -0.186652 -0.397471 -0.421685 -0.508253 -0.397471 -0.47543 -0.243936 -0.508811 -0.229395 -0.477503 -0.508811 -0.615463 -0.477503 -0.57375 -0.229395 -0.477503 -0.215857 -0.447574 -0.477503 -0.57375 -0.447574 -0.540626 -0.186652 -0.397471 -0.175369 -0.370487 -0.397471 -0.47543 -0.370487 -0.446843 -0.175369 -0.370487 -0.164085 -0.345101 0 0.226858 0 0.212087 0.226858 0.381082 0.212087 0.361089 0 0.212087 0 0.170548 0.212087 0.361089 0.170548 0.341096 -0.615463 -0.508844 -0.57375 -0.477511 -0.508844 -0.243973 -0.477511 -0.229406 -0.57375 -0.477511 -0.540626 -0.447576 -0.477511 -0.229406 -0.447576 -0.21586 -0.243973 0.100187 -0.229406 0.091499 0.100187 0.406073 0.091499 0.377648 -0.229406 0.091499 -0.21586 0.0846047 0.091499 0.377648 0.0846047 0.351219 0 0.324002 0 0.30156 0.324002 0.543518 0.30156 0.503288 0 0.30156 0 0.280664 0.30156 0.503288 0.280664 0.468234 -0.447576 -0.21586 -0.421677 -0.203975 -0.508253 -0.421677 -0.47543 -0.397428 -0.421677 -0.203975 -0.397428 -0.186611 -0.21586 0.0846047 -0.203975 0.0788089 -0.203975 0.0788089 -0.186611 0.0609211 0.0788089 0.327057 0.0609211 0.308453 -0.47543 -0.397428 -0.446843 -0.370383 -0.397428 -0.186611 -0.370383 -0.175156 -0.370383 -0.175156 -0.344926 -0.163701 0.543518 0.571999 0.503288 0.528785 0.571999 0.40607 0.528785 0.377656 0.503288 0.528785 0.468234 0.491817 0.528785 0.377656 0.491817 0.351222 0.406073 0.572002 0.377648 0.528779 0.572002 0.543516 0.528779 0.503283 0.377648 0.528779 0.351219 0.491814 0.528779 0.503283 0.491814 0.468233 0.381417 0.226955 0.361355 0.212194 0.226955 1.58925e-16 0.212194 1.49297e-16 0.361355 0.212194 0.341292 0.170646 0.212194 1.49297e-16 0.170646 1.40251e-16 0.543516 0.324 0.503283 0.301557 0.324 2.31235e-16 0.301557 2.17225e-16 0.503283 0.301557 0.468233 0.280663 0.301557 2.17225e-16 0.280663 2.04064e-16 0 0.280664 0 0.262699 0.280664 0.468234 0.262699 0.437921 0 0.262699 0 0.248154 0.262699 0.437921 0.248154 0.411996 0.468234 0.491817 0.437921 0.459692 0.491817 0.351222 0.459692 0.327037 0.437921 0.459692 0.411996 0.431304 0.459692 0.327037 0.431304 0.308355 0.411996 0.431304 0.381286 0.404806 0.431304 0.308355 0.404806 0.29762 0.381286 0.404806 0.381082 0.333984 0.404806 0.29762 0.333984 0.286886 0.286886 0.0614002 0.269909 0.0663589 0.0614002 -0.164085 0.0663589 -0.154803 0.269909 0.0663589 0.252932 0.0644291 0.0663589 -0.154803 0.0644291 -0.143695 -0.164085 -0.345101 -0.154803 -0.322794 -0.345101 -0.417412 -0.322794 -0.388165 -0.154803 -0.322794 -0.143695 -0.302579 -0.322794 -0.388165 -0.302579 -0.364121 0.252932 0.0644291 0.245575 0.0640026 0.0644291 -0.143695 0.0640026 -0.134944 0.245575 0.0640026 0.238217 0.0657239 0.0640026 -0.134944 0.0657239 -0.128922 -0.143695 -0.302579 -0.134944 -0.287419 -0.302579 -0.364121 -0.287419 -0.3465 -0.134944 -0.287419 -0.128922 -0.280113 -0.287419 -0.3465 -0.280113 -0.33689 0.351219 0.491814 0.327057 0.459711 0.491814 0.468233 0.459711 0.437934 0.327057 0.459711 0.308453 0.431358 0.459711 0.437934 0.431358 0.412042 0.468233 0.280663 0.437934 0.262707 0.280663 2.04064e-16 0.262707 1.91701e-16 0.437934 0.262707 0.412042 0.24818 0.262707 1.91701e-16 0.24818 1.80086e-16 0.308453 0.431358 0.297687 0.40493 0.431358 0.412042 0.40493 0.381391 0.297687 0.40493 0.286921 0.334169 0.40493 0.381391 0.334169 0.381417 -0.417412 -0.344926 -0.388165 -0.322224 -0.344926 -0.163701 -0.322224 -0.154737 -0.388165 -0.322224 -0.364121 -0.302041 -0.322224 -0.154737 -0.302041 -0.140321 -0.163701 0.0616103 -0.154737 0.0669313 0.0616103 0.286921 0.0669313 0.271246 -0.154737 0.0669313 -0.140321 0.0576252 0.0669313 0.271246 0.0576252 0.255571 -0.364121 -0.302041 -0.3465 -0.28697 -0.302041 -0.140321 -0.28697 -0.134622 -0.3465 -0.28697 -0.33689 -0.280113 -0.28697 -0.134622 -0.280113 -0.128922 -0.545703 -0.602023 -0.527257 -0.598707 -0.602023 -0.658342 -0.598707 -0.619971 -0.527257 -0.598707 -0.508811 -0.562137 -0.598707 -0.619971 -0.562137 -0.615463 0.50877 0.707893 0.488094 0.678903 0.707893 0.846053 0.678903 0.811534 0.488094 0.678903 0.467419 0.651783 0.678903 0.811534 0.651783 0.778922 0.467419 0.651783 0.452717 0.625482 0.651783 0.778922 0.625482 0.747315 0.452717 0.625482 0.438015 0.582228 0.625482 0.747315 0.582228 0.726441 0.846053 0.911351 0.811534 0.874096 0.911351 0.898165 0.874096 0.861513 0.811534 0.874096 0.778922 0.83909 0.874096 0.861513 0.83909 0.82714 0.898165 0.807629 0.861513 0.774635 0.807629 0.647541 0.774635 0.621602 0.861513 0.774635 0.82714 0.743606 0.774635 0.621602 0.743606 0.595664 0.778922 0.83909 0.747315 0.807435 0.83909 0.82714 0.807435 0.795231 0.747315 0.807435 0.726441 0.77775 0.807435 0.795231 0.77775 0.765349 0.82714 0.743606 0.795231 0.714543 0.743606 0.595664 0.714543 0.572833 0.795231 0.714543 0.765349 0.687304 0.714543 0.572833 0.687304 0.550003 -0.658342 -0.602134 -0.619971 -0.598763 -0.602134 -0.545926 -0.598763 -0.527385 -0.619971 -0.598763 -0.615463 -0.562154 -0.598763 -0.527385 -0.562154 -0.508844 0.726441 0.77775 0.698449 0.749418 0.77775 0.765349 0.749418 0.736909 0.698449 0.749418 0.670457 0.721637 0.749418 0.736909 0.721637 0.709378 0.765349 0.687304 0.736909 0.661254 0.687304 0.550003 0.661254 0.528923 0.736909 0.661254 0.709378 0.63652 0.661254 0.528923 0.63652 0.507844 0.670457 0.721637 0.650011 0.694955 0.721637 0.709378 0.694955 0.680566 0.650011 0.694955 0.629564 0.649956 0.694955 0.680566 0.649956 0.670347 0.709378 0.63652 0.680566 0.612915 0.63652 0.507844 0.612915 0.491906 0.680566 0.612915 0.670347 0.573158 0.612915 0.491906 0.573158 0.475968 -0.350447 -0.580953 -0.338223 -0.559268 -0.580953 -0.761427 -0.559268 -0.732587 -0.338223 -0.559268 -0.326 -0.538939 -0.559268 -0.732587 -0.538939 -0.705571 -0.761427 -0.876329 -0.732587 -0.84286 -0.876329 -0.915761 -0.84286 -0.880798 -0.732587 -0.84286 -0.705571 -0.811593 -0.84286 -0.880798 -0.811593 -0.84808 -0.326 -0.538939 -0.315125 -0.52 -0.538939 -0.705571 -0.52 -0.68056 -0.315125 -0.52 -0.304251 -0.502571 -0.52 -0.68056 -0.502571 -0.657155 -0.705571 -0.811593 -0.68056 -0.782662 -0.811593 -0.84808 -0.782662 -0.817827 -0.68056 -0.782662 -0.657155 -0.755698 -0.782662 -0.817827 -0.755698 -0.789759 0.350259 0.46809 0.337131 0.464269 0.46809 0.585921 0.464269 0.549865 0.337131 0.464269 0.324002 0.43376 0.464269 0.549865 0.43376 0.543518 0.585921 0.602566 0.549865 0.595651 0.602566 0.61921 0.595651 0.579821 0.549865 0.595651 0.543518 0.557759 0.595651 0.579821 0.557759 0.571999 0.61921 0.529172 0.579821 0.524084 0.529172 0.439134 0.524084 0.422602 0.579821 0.524084 0.571999 0.489035 0.524084 0.422602 0.489035 0.40607 -0.304251 -0.502571 -0.297867 -0.485439 -0.502571 -0.657155 -0.485439 -0.634173 -0.297867 -0.485439 -0.291482 -0.454961 -0.485439 -0.634173 -0.454961 -0.61844 -0.657155 -0.755698 -0.634173 -0.731012 -0.755698 -0.789759 -0.731012 -0.763449 -0.634173 -0.731012 -0.61844 -0.707782 -0.731012 -0.763449 -0.707782 -0.738415 -0.61844 -0.707782 -0.601561 -0.68547 -0.707782 -0.738415 -0.68547 -0.712091 -0.601561 -0.68547 -0.584681 -0.644295 -0.68547 -0.712091 -0.644295 -0.703909 0.4392 0.529213 0.422637 0.524103 0.529213 0.619225 0.524103 0.57983 0.422637 0.524103 0.406073 0.489037 0.524103 0.57983 0.489037 0.572002 0.619225 0.602574 0.57983 0.595654 0.602574 0.585923 0.595654 0.549866 0.57983 0.595654 0.572002 0.557759 0.595654 0.549866 0.557759 0.543516 0.585923 0.468091 0.549866 0.464268 0.468091 0.350259 0.464268 0.33713 0.549866 0.464268 0.543516 0.433758 0.464268 0.33713 0.433758 0.324 -0.915761 -0.876329 -0.880798 -0.842887 -0.876329 -0.761427 -0.842887 -0.732636 -0.880798 -0.842887 -0.84808 -0.811654 -0.842887 -0.732636 -0.811654 -0.705694 -0.761427 -0.580953 -0.732636 -0.559316 -0.580953 -0.350447 -0.559316 -0.338254 -0.732636 -0.559316 -0.705694 -0.539113 -0.559316 -0.338254 -0.539113 -0.326062 -0.84808 -0.811654 -0.817827 -0.782786 -0.811654 -0.705694 -0.782786 -0.680783 -0.817827 -0.782786 -0.789759 -0.755939 -0.782786 -0.680783 -0.755939 -0.657597 -0.705694 -0.539113 -0.680783 -0.520372 -0.539113 -0.326062 -0.520372 -0.315721 -0.680783 -0.520372 -0.657597 -0.503004 -0.520372 -0.315721 -0.503004 -0.305379 -0.789759 -0.755939 -0.763449 -0.730681 -0.755939 -0.657597 -0.730681 -0.635787 -0.763449 -0.730681 -0.738415 -0.706352 -0.730681 -0.635787 -0.706352 -0.615036 -0.657597 -0.503004 -0.635787 -0.486618 -0.503004 -0.305379 -0.486618 -0.296137 -0.635787 -0.486618 -0.615036 -0.47124 -0.486618 -0.296137 -0.47124 -0.286895 -0.738415 -0.706352 -0.712091 -0.68426 -0.706352 -0.615036 -0.68426 -0.593424 -0.712091 -0.68426 -0.703909 -0.645386 -0.68426 -0.593424 -0.645386 -0.586863 -0.615036 -0.47124 -0.593424 -0.456879 -0.47124 -0.286895 -0.456879 -0.280948 -0.593424 -0.456879 -0.586863 -0.430932 -0.456879 -0.280948 -0.430932 -0.275001 0.647541 0.807629 0.621627 0.774649 0.807629 0.898165 0.774649 0.86152 0.621627 0.774649 0.595714 0.743633 0.774649 0.86152 0.743633 0.827154 0.898165 0.911351 0.86152 0.8741 0.911351 0.846053 0.8741 0.811536 0.86152 0.8741 0.827154 0.839098 0.8741 0.811536 0.839098 0.778926 0.595714 0.743633 0.572904 0.714582 0.743633 0.827154 0.714582 0.795252 0.572904 0.714582 0.550094 0.687356 0.714582 0.795252 0.687356 0.765376 0.827154 0.839098 0.795252 0.807446 0.839098 0.778926 0.807446 0.747321 0.795252 0.807446 0.765376 0.777764 0.807446 0.747321 0.777764 0.726448 0.846053 0.707893 0.811536 0.678904 0.707893 0.50877 0.678904 0.488095 0.811536 0.678904 0.778926 0.651785 0.678904 0.488095 0.651785 0.46742 0.778926 0.651785 0.747321 0.625485 0.651785 0.46742 0.625485 0.452718 0.747321 0.625485 0.726448 0.582232 0.625485 0.452718 0.582232 0.438016 0.550094 0.687356 0.529044 0.661318 0.687356 0.765376 0.661318 0.736941 0.529044 0.661318 0.507994 0.636591 0.661318 0.736941 0.636591 0.709413 0.765376 0.777764 0.736941 0.749434 0.777764 0.726448 0.749434 0.698457 0.736941 0.749434 0.709413 0.721654 0.749434 0.698457 0.721654 0.670466 0.507994 0.636591 0.492034 0.612984 0.636591 0.709413 0.612984 0.680601 0.492034 0.612984 0.476075 0.573224 0.612984 0.680601 0.573224 0.670374 0.709413 0.721654 0.680601 0.694972 0.721654 0.670466 0.694972 0.650018 0.680601 0.694972 0.670374 0.649972 0.694972 0.650018 0.649972 0.62957 0.248154 0.330075 0.240742 0.332074 0.330075 0.411996 0.332074 0.396641 0.240742 0.332074 0.233331 0.325254 0.332074 0.396641 0.325254 0.381286 0.233331 0.325254 0.230094 0.31858 0.325254 0.381286 0.31858 0.381184 0.230094 0.31858 0.226858 0.30397 0.31858 0.381184 0.30397 0.381082 0.412042 0.330111 0.396717 0.332134 0.330111 0.24818 0.332134 0.240788 0.396717 0.332134 0.381391 0.325352 0.332134 0.240788 0.325352 0.233397 0.381391 0.325352 0.381404 0.318728 0.325352 0.233397 0.318728 0.230176 0.381404 0.318728 0.381417 0.304186 0.318728 0.230176 0.304186 0.226955 0.351222 0.217915 0.339129 0.218381 0.217915 0.0846082 0.218381 0.0816992 0.339129 0.218381 0.327037 0.202914 0.218381 0.0816992 0.202914 0.0787903 -0.447574 -0.4941 -0.434629 -0.493235 -0.4941 -0.540626 -0.493235 -0.510672 -0.434629 -0.493235 -0.421685 -0.464969 -0.493235 -0.510672 -0.464969 -0.508253 -0.370487 -0.408665 -0.357794 -0.406378 -0.408665 -0.446843 -0.406378 -0.420761 -0.357794 -0.406378 -0.345101 -0.381257 -0.406378 -0.420761 -0.381257 -0.417412 -0.540626 -0.494101 -0.510672 -0.493234 -0.494101 -0.447576 -0.493234 -0.434626 -0.510672 -0.493234 -0.508253 -0.464965 -0.493234 -0.434626 -0.464965 -0.421677 0.0846047 0.217912 0.0817068 0.218386 0.217912 0.351219 0.218386 0.339138 0.0817068 0.218386 0.0788089 0.202933 0.218386 0.339138 0.202933 0.327057 -0.446843 -0.408613 -0.420761 -0.406309 -0.408613 -0.370383 -0.406309 -0.357655 -0.420761 -0.406309 -0.417412 -0.381169 -0.406309 -0.357655 -0.381169 -0.344926 
