# vtk DataFile Version 3.0
#This file was generated by the deal.II library on 2018/12/4 at 0:47:15
ASCII
DATASET UNSTRUCTURED_GRID

POINTS 2908 double
0.3125 0 0
0.375 0 0
0.3125 0.0625 0
0.375 0.0625 0
0.3125 0.0625 0
0.375 0.0625 0
0.3125 0.125 0
0.375 0.125 0
0.4375 0.3125 0
0.5 0.3125 0
0.4375 0.375 0
0.5 0.375 0
0.1875 0.0625 0
0.25 0.0625 0
0.1875 0.125 0
0.25 0.125 0
0.625 0 0
0.6875 0 0
0.625 0.0625 0
0.6875 0.0625 0
0.625 0.0625 0
0.6875 0.0625 0
0.625 0.125 0
0.6875 0.125 0
0.5 0.3125 0
0.5625 0.3125 0
0.5 0.375 0
0.5625 0.375 0
0.1875 0.125 0
0.25 0.125 0
0.1875 0.1875 0
0.25 0.1875 0
0.1875 0.1875 0
0.25 0.1875 0
0.1875 0.25 0
0.25 0.25 0
0.375 0 0
0.4375 0 0
0.375 0.0625 0
0.4375 0.0625 0
0.375 0.0625 0
0.4375 0.0625 0
0.375 0.125 0
0.4375 0.125 0
0.4375 0.0625 0
0.5 0.0625 0
0.4375 0.125 0
0.5 0.125 0
0 0.3125 0
0.0625 0.3125 0
0 0.375 0
0.0625 0.375 0
0.0625 0.3125 0
0.125 0.3125 0
0.0625 0.375 0
0.125 0.375 0
0.125 0.3125 0
0.1875 0.3125 0
0.125 0.375 0
0.1875 0.375 0
0.1875 0.3125 0
0.25 0.3125 0
0.1875 0.375 0
0.25 0.375 0
0.3125 0.125 0
0.375 0.125 0
0.3125 0.1875 0
0.375 0.1875 0
0.375 0.125 0
0.4375 0.125 0
0.375 0.1875 0
0.4375 0.1875 0
0.4375 0.125 0
0.5 0.125 0
0.4375 0.1875 0
0.5 0.1875 0
0.4375 0.1875 0
0.5 0.1875 0
0.4375 0.25 0
0.5 0.25 0
0.75 0.3125 0
0.8125 0.3125 0
0.75 0.375 0
0.8125 0.375 0
0.8125 0.3125 0
0.875 0.3125 0
0.8125 0.375 0
0.875 0.375 0
0.875 0.3125 0
0.9375 0.3125 0
0.875 0.375 0
0.9375 0.375 0
0.9375 0.3125 0
1 0.3125 0
0.9375 0.375 0
1 0.375 0
0.3125 0.25 0
0.375 0.25 0
0.3125 0.3125 0
0.375 0.3125 0
0.3125 0.3125 0
0.375 0.3125 0
0.3125 0.375 0
0.375 0.375 0
0.5625 0 0
0.625 0 0
0.5625 0.0625 0
0.625 0.0625 0
0.5 0.0625 0
0.5625 0.0625 0
0.5 0.125 0
0.5625 0.125 0
0.5625 0.0625 0
0.625 0.0625 0
0.5625 0.125 0
0.625 0.125 0
0.5 0.125 0
0.5625 0.125 0
0.5 0.1875 0
0.5625 0.1875 0
0.5625 0.125 0
0.625 0.125 0
0.5625 0.1875 0
0.625 0.1875 0
0.5 0.1875 0
0.5625 0.1875 0
0.5 0.25 0
0.5625 0.25 0
0.5625 0.1875 0
0.625 0.1875 0
0.5625 0.25 0
0.625 0.25 0
0.625 0.125 0
0.6875 0.125 0
0.625 0.1875 0
0.6875 0.1875 0
0.625 0.1875 0
0.6875 0.1875 0
0.625 0.25 0
0.6875 0.25 0
0.75 0.0625 0
0.8125 0.0625 0
0.75 0.125 0
0.8125 0.125 0
0.75 0.125 0
0.8125 0.125 0
0.75 0.1875 0
0.8125 0.1875 0
0.75 0.1875 0
0.8125 0.1875 0
0.75 0.25 0
0.8125 0.25 0
0.625 0.25 0
0.6875 0.25 0
0.625 0.3125 0
0.6875 0.3125 0
0.625 0.3125 0
0.6875 0.3125 0
0.625 0.375 0
0.6875 0.375 0
0 0.625 0
0.0625 0.625 0
0 0.6875 0
0.0625 0.6875 0
0.0625 0.625 0
0.125 0.625 0
0.0625 0.6875 0
0.125 0.6875 0
0 0.6875 0
0.0625 0.6875 0
0 0.75 0
0.0625 0.75 0
0.0625 0.6875 0
0.125 0.6875 0
0.0625 0.75 0
0.125 0.75 0
0.875 0.625 0
0.9375 0.625 0
0.875 0.6875 0
0.9375 0.6875 0
0.9375 0.625 0
1 0.625 0
0.9375 0.6875 0
1 0.6875 0
0.875 0.6875 0
0.9375 0.6875 0
0.875 0.75 0
0.9375 0.75 0
0.9375 0.6875 0
1 0.6875 0
0.9375 0.75 0
1 0.75 0
0.3125 0.375 0
0.375 0.375 0
0.3125 0.4375 0
0.375 0.4375 0
0.3125 0.4375 0
0.375 0.4375 0
0.3125 0.5 0
0.375 0.5 0
0.25 0.5 0
0.3125 0.5 0
0.25 0.5625 0
0.3125 0.5625 0
0.3125 0.5 0
0.375 0.5 0
0.3125 0.5625 0
0.375 0.5625 0
0.3125 0.5625 0
0.375 0.5625 0
0.3125 0.625 0
0.375 0.625 0
0.4375 0.5 0
0.5 0.5 0
0.4375 0.5625 0
0.5 0.5625 0
0.4375 0.6875 0
0.5 0.6875 0
0.4375 0.75 0
0.5 0.75 0
0 0.75 0
0.0625 0.75 0
0 0.8125 0
0.0625 0.8125 0
0 0.8125 0
0.0625 0.8125 0
0 0.875 0
0.0625 0.875 0
0.625 0.375 0
0.6875 0.375 0
0.625 0.4375 0
0.6875 0.4375 0
0.625 0.4375 0
0.6875 0.4375 0
0.625 0.5 0
0.6875 0.5 0
0 0.4375 0
0.0625 0.4375 0
0 0.5 0
0.0625 0.5 0
0.5 0.5 0
0.5625 0.5 0
0.5 0.5625 0
0.5625 0.5625 0
0.625 0.5 0
0.6875 0.5 0
0.625 0.5625 0
0.6875 0.5625 0
0.6875 0.5 0
0.75 0.5 0
0.6875 0.5625 0
0.75 0.5625 0
0.625 0.5625 0
0.6875 0.5625 0
0.625 0.625 0
0.6875 0.625 0
0.5 0.6875 0
0.5625 0.6875 0
0.5 0.75 0
0.5625 0.75 0
0.9375 0.75 0
1 0.75 0
0.9375 0.8125 0
1 0.8125 0
0.9375 0.8125 0
1 0.8125 0
0.9375 0.875 0
1 0.875 0
0.9375 0.4375 0
1 0.4375 0
0.9375 0.5 0
1 0.5 0
0 0.5 0
0.0625 0.5 0
0 0.5625 0
0.0625 0.5625 0
0 0.5625 0
0.0625 0.5625 0
0 0.625 0
0.0625 0.625 0
0.3125 0.75 0
0.375 0.75 0
0.3125 0.8125 0
0.375 0.8125 0
0.3125 0.8125 0
0.375 0.8125 0
0.3125 0.875 0
0.375 0.875 0
0.3125 0.875 0
0.375 0.875 0
0.3125 0.9375 0
0.375 0.9375 0
0.3125 0.9375 0
0.375 0.9375 0
0.3125 1 0
0.375 1 0
0.9375 0.5 0
1 0.5 0
0.9375 0.5625 0
1 0.5625 0
0.9375 0.5625 0
1 0.5625 0
0.9375 0.625 0
1 0.625 0
0.625 0.75 0
0.6875 0.75 0
0.625 0.8125 0
0.6875 0.8125 0
0.625 0.8125 0
0.6875 0.8125 0
0.625 0.875 0
0.6875 0.875 0
0.5625 0.9375 0
0.625 0.9375 0
0.5625 1 0
0.625 1 0
0.625 0.875 0
0.6875 0.875 0
0.625 0.9375 0
0.6875 0.9375 0
0.6875 0.875 0
0.75 0.875 0
0.6875 0.9375 0
0.75 0.9375 0
0.625 0.9375 0
0.6875 0.9375 0
0.625 1 0
0.6875 1 0
0.6875 0.9375 0
0.75 0.9375 0
0.6875 1 0
0.75 1 0
0.25 0.625 0
0.3125 0.625 0
0.25 0.6875 0
0.3125 0.6875 0
0.3125 0.625 0
0.375 0.625 0
0.3125 0.6875 0
0.375 0.6875 0
0.25 0.6875 0
0.3125 0.6875 0
0.25 0.75 0
0.3125 0.75 0
0.3125 0.6875 0
0.375 0.6875 0
0.3125 0.75 0
0.375 0.75 0
0.125 0.75 0
0.1875 0.75 0
0.125 0.8125 0
0.1875 0.8125 0
0.1875 0.75 0
0.25 0.75 0
0.1875 0.8125 0
0.25 0.8125 0
0.125 0.8125 0
0.1875 0.8125 0
0.125 0.875 0
0.1875 0.875 0
0.1875 0.8125 0
0.25 0.8125 0
0.1875 0.875 0
0.25 0.875 0
0 0.875 0
0.0625 0.875 0
0 0.9375 0
0.0625 0.9375 0
0.0625 0.875 0
0.125 0.875 0
0.0625 0.9375 0
0.125 0.9375 0
0 0.9375 0
0.0625 0.9375 0
0 1 0
0.0625 1 0
0.0625 0.9375 0
0.125 0.9375 0
0.0625 1 0
0.125 1 0
0.125 0.875 0
0.1875 0.875 0
0.125 0.9375 0
0.1875 0.9375 0
0.1875 0.875 0
0.25 0.875 0
0.1875 0.9375 0
0.25 0.9375 0
0.125 0.9375 0
0.1875 0.9375 0
0.125 1 0
0.1875 1 0
0.1875 0.9375 0
0.25 0.9375 0
0.1875 1 0
0.25 1 0
0.625 0.625 0
0.6875 0.625 0
0.625 0.6875 0
0.6875 0.6875 0
0.6875 0.625 0
0.75 0.625 0
0.6875 0.6875 0
0.75 0.6875 0
0.625 0.6875 0
0.6875 0.6875 0
0.625 0.75 0
0.6875 0.75 0
0.6875 0.6875 0
0.75 0.6875 0
0.6875 0.75 0
0.75 0.75 0
0.75 0.75 0
0.8125 0.75 0
0.75 0.8125 0
0.8125 0.8125 0
0.8125 0.75 0
0.875 0.75 0
0.8125 0.8125 0
0.875 0.8125 0
0.75 0.8125 0
0.8125 0.8125 0
0.75 0.875 0
0.8125 0.875 0
0.8125 0.8125 0
0.875 0.8125 0
0.8125 0.875 0
0.875 0.875 0
0.75 0.875 0
0.8125 0.875 0
0.75 0.9375 0
0.8125 0.9375 0
0.8125 0.875 0
0.875 0.875 0
0.8125 0.9375 0
0.875 0.9375 0
0.75 0.9375 0
0.8125 0.9375 0
0.75 1 0
0.8125 1 0
0.8125 0.9375 0
0.875 0.9375 0
0.8125 1 0
0.875 1 0
0.875 0.875 0
0.9375 0.875 0
0.875 0.9375 0
0.9375 0.9375 0
0.9375 0.875 0
1 0.875 0
0.9375 0.9375 0
1 0.9375 0
0.875 0.9375 0
0.9375 0.9375 0
0.875 1 0
0.9375 1 0
0.9375 0.9375 0
1 0.9375 0
0.9375 1 0
1 1 0
0 0.125 0
0.03125 0.125 0
0 0.15625 0
0.03125 0.15625 0
0.03125 0.125 0
0.0625 0.125 0
0.03125 0.15625 0
0.0625 0.15625 0
0 0.15625 0
0.03125 0.15625 0
0 0.1875 0
0.03125 0.1875 0
0.03125 0.15625 0
0.0625 0.15625 0
0.03125 0.1875 0
0.0625 0.1875 0
0.0625 0 0
0.09375 0 0
0.0625 0.03125 0
0.09375 0.03125 0
0.09375 0 0
0.125 0 0
0.09375 0.03125 0
0.125 0.03125 0
0.0625 0.03125 0
0.09375 0.03125 0
0.0625 0.0625 0
0.09375 0.0625 0
0.09375 0.03125 0
0.125 0.03125 0
0.09375 0.0625 0
0.125 0.0625 0
0.0625 0.0625 0
0.09375 0.0625 0
0.0625 0.09375 0
0.09375 0.09375 0
0.09375 0.0625 0
0.125 0.0625 0
0.09375 0.09375 0
0.125 0.09375 0
0.0625 0.09375 0
0.09375 0.09375 0
0.0625 0.125 0
0.09375 0.125 0
0.09375 0.09375 0
0.125 0.09375 0
0.09375 0.125 0
0.125 0.125 0
0.125 0.03125 0
0.15625 0.03125 0
0.125 0.0625 0
0.15625 0.0625 0
0.1875 0 0
0.21875 0 0
0.1875 0.03125 0
0.21875 0.03125 0
0.21875 0 0
0.25 0 0
0.21875 0.03125 0
0.25 0.03125 0
0.1875 0.03125 0
0.21875 0.03125 0
0.1875 0.0625 0
0.21875 0.0625 0
0.21875 0.03125 0
0.25 0.03125 0
0.21875 0.0625 0
0.25 0.0625 0
0.125 0.0625 0
0.15625 0.0625 0
0.125 0.09375 0
0.15625 0.09375 0
0.15625 0.0625 0
0.1875 0.0625 0
0.15625 0.09375 0
0.1875 0.09375 0
0.15625 0.09375 0
0.1875 0.09375 0
0.15625 0.125 0
0.1875 0.125 0
0.0625 0.125 0
0.09375 0.125 0
0.0625 0.15625 0
0.09375 0.15625 0
0.09375 0.125 0
0.125 0.125 0
0.09375 0.15625 0
0.125 0.15625 0
0.0625 0.15625 0
0.09375 0.15625 0
0.0625 0.1875 0
0.09375 0.1875 0
0.09375 0.15625 0
0.125 0.15625 0
0.09375 0.1875 0
0.125 0.1875 0
0 0.1875 0
0.03125 0.1875 0
0 0.21875 0
0.03125 0.21875 0
0.03125 0.1875 0
0.0625 0.1875 0
0.03125 0.21875 0
0.0625 0.21875 0
0 0.21875 0
0.03125 0.21875 0
0 0.25 0
0.03125 0.25 0
0.03125 0.21875 0
0.0625 0.21875 0
0.03125 0.25 0
0.0625 0.25 0
0.15625 0.125 0
0.1875 0.125 0
0.15625 0.15625 0
0.1875 0.15625 0
0.15625 0.15625 0
0.1875 0.15625 0
0.15625 0.1875 0
0.1875 0.1875 0
0.0625 0.1875 0
0.09375 0.1875 0
0.0625 0.21875 0
0.09375 0.21875 0
0.09375 0.1875 0
0.125 0.1875 0
0.09375 0.21875 0
0.125 0.21875 0
0.0625 0.21875 0
0.09375 0.21875 0
0.0625 0.25 0
0.09375 0.25 0
0.09375 0.21875 0
0.125 0.21875 0
0.09375 0.25 0
0.125 0.25 0
0.15625 0.1875 0
0.1875 0.1875 0
0.15625 0.21875 0
0.1875 0.21875 0
0.125 0.21875 0
0.15625 0.21875 0
0.125 0.25 0
0.15625 0.25 0
0.15625 0.21875 0
0.1875 0.21875 0
0.15625 0.25 0
0.1875 0.25 0
0.25 0 0
0.28125 0 0
0.25 0.03125 0
0.28125 0.03125 0
0.28125 0 0
0.3125 0 0
0.28125 0.03125 0
0.3125 0.03125 0
0.25 0.03125 0
0.28125 0.03125 0
0.25 0.0625 0
0.28125 0.0625 0
0.28125 0.03125 0
0.3125 0.03125 0
0.28125 0.0625 0
0.3125 0.0625 0
0.25 0.0625 0
0.28125 0.0625 0
0.25 0.09375 0
0.28125 0.09375 0
0.28125 0.0625 0
0.3125 0.0625 0
0.28125 0.09375 0
0.3125 0.09375 0
0.25 0.09375 0
0.28125 0.09375 0
0.25 0.125 0
0.28125 0.125 0
0.28125 0.09375 0
0.3125 0.09375 0
0.28125 0.125 0
0.3125 0.125 0
0.4375 0 0
0.46875 0 0
0.4375 0.03125 0
0.46875 0.03125 0
0.4375 0.03125 0
0.46875 0.03125 0
0.4375 0.0625 0
0.46875 0.0625 0
0.46875 0.03125 0
0.5 0.03125 0
0.46875 0.0625 0
0.5 0.0625 0
0.375 0.25 0
0.40625 0.25 0
0.375 0.28125 0
0.40625 0.28125 0
0.40625 0.25 0
0.4375 0.25 0
0.40625 0.28125 0
0.4375 0.28125 0
0.375 0.28125 0
0.40625 0.28125 0
0.375 0.3125 0
0.40625 0.3125 0
0.40625 0.28125 0
0.4375 0.28125 0
0.40625 0.3125 0
0.4375 0.3125 0
0.4375 0.25 0
0.46875 0.25 0
0.4375 0.28125 0
0.46875 0.28125 0
0.46875 0.25 0
0.5 0.25 0
0.46875 0.28125 0
[...]
POINT_DATA 2908
SCALARS U double 1
LOOKUP_TABLE default
0.174419 -0.342136 0.160096 -0.323885 0.160096 -0.323885 0.14652 -0.306507 -0.546576 -0.657171 -0.514583 -0.618507 0.823587 0.592859 0.763166 0.548393 -0.342136 0.174419 -0.323788 0.16018 -0.323788 0.16018 -0.306188 0.146787 -0.657171 -0.546309 -0.618507 -0.514501 0.763166 0.548393 0.710843 0.510003 0.710843 0.510003 0.664432 0.476691 -0.342136 -0.743371 -0.323885 -0.702895 -0.323885 -0.702895 -0.306507 -0.659009 -0.702895 -0.85083 -0.659009 -0.791169 0 0.35716 0 0.333256 0.35716 0.593172 0.333256 0.553676 0.593172 0.626425 0.553676 0.585153 0.626425 0.445221 0.585153 0.415389 0.14652 -0.306507 0.134588 -0.291061 -0.306507 -0.659009 -0.291061 -0.619259 -0.659009 -0.791169 -0.619259 -0.742107 -0.619259 -0.742107 -0.579297 -0.698784 0.445171 0.626438 0.415385 0.585165 0.626438 0.593195 0.585165 0.553693 0.593195 0.357174 0.553693 0.333266 0.357174 2.40311e-16 0.333266 2.25752e-16 0.123545 -0.271073 0.113771 -0.256583 0.113771 -0.256583 0.104264 -0.242574 -0.743371 -0.342136 -0.702834 -0.323788 -0.85083 -0.702834 -0.791169 -0.658704 -0.702834 -0.323788 -0.658704 -0.306188 -0.791169 -0.658704 -0.742107 -0.618655 -0.658704 -0.306188 -0.618655 -0.289462 -0.742107 -0.618655 -0.698784 -0.583614 -0.618655 -0.289462 -0.583614 -0.273678 -0.306188 0.146787 -0.289462 0.134294 -0.289462 0.134294 -0.273678 0.123259 0.59292 0.823622 0.548461 0.763215 0.548461 0.763215 0.509958 0.710884 0.509958 0.710884 0.476593 0.664455 -0.273678 0.123259 -0.255582 0.113511 -0.255582 0.113511 -0.242516 0.104353 0 0.253592 0 0.237726 0.253592 0.420114 0.237726 0.391371 0 0.237726 0 0.223838 0.237726 0.391371 0.223838 0.371003 0.420147 0.253617 0.391421 0.237772 0.253617 1.75815e-16 0.237772 1.65163e-16 0.391421 0.237772 0.371105 0.223914 0.237772 1.65163e-16 0.223914 1.55157e-16 0.104264 -0.242574 0.0942768 -0.228456 0.0942768 -0.228456 0.0886891 -0.216158 0.358654 0.0886891 0.334995 0.0813997 0.0886891 -0.216158 0.0813997 -0.203503 0.0813997 -0.203503 0.0756941 -0.19054 -0.455099 -0.54651 -0.427419 -0.512998 -0.375821 -0.45134 -0.352126 -0.423133 0 0.223838 0 0.207231 0 0.207231 0 0.198383 -0.242516 0.104353 -0.228439 0.0942854 -0.228439 0.0942854 -0.216154 0.0886984 0 0.306937 0 0.286585 -0.54651 -0.455097 -0.512998 -0.427418 -0.216154 0.0886984 -0.203499 0.0814084 0.0886984 0.358668 0.0814084 0.335009 -0.203499 0.0814084 -0.190553 0.0756804 -0.45134 -0.375853 -0.423133 -0.352175 0.223914 1.55157e-16 0.207331 1.45756e-16 0.207331 1.45756e-16 0.198487 1.36925e-16 0.306945 2.12074e-16 0.286595 1.99225e-16 0 0.286585 0 0.267471 0 0.267471 0 0.253592 0.0693996 -0.16666 0.0656116 -0.15469 0.0656116 -0.15469 0.0643645 -0.144097 0.0643645 -0.144097 0.0637318 -0.134495 0.0637318 -0.134495 0.0641653 -0.125865 0.286595 1.99225e-16 0.267486 1.87155e-16 0.267486 1.87155e-16 0.253617 1.75815e-16 -0.166866 0.0691067 -0.154856 0.0646992 -0.154856 0.0646992 -0.143681 0.0645542 -0.290344 -0.135635 -0.273471 -0.125865 -0.143681 0.0645542 -0.135635 0.0634546 0.0645542 0.248615 0.0634546 0.238612 -0.135635 0.0634546 -0.125865 0.0641653 0.0634546 0.238612 0.0641653 0.232568 0.313554 0.0756941 0.292617 0.0720402 0.0756941 -0.19054 0.0720402 -0.178597 0.292617 0.0720402 0.278526 0.0693996 0.0720402 -0.178597 0.0693996 -0.16666 0.371003 0.392345 0.344917 0.366245 0.392345 0.278526 0.366245 0.260941 0.344917 0.366245 0.328623 0.346097 0.366245 0.260941 0.346097 0.248059 0 0.198383 0 0.188722 0.198383 0.328623 0.188722 0.313563 0 0.188722 0 0.182727 0.188722 0.313563 0.182727 0.303864 0.328623 0.346097 0.313563 0.331907 0.346097 0.248059 0.331907 0.238556 0.313563 0.331907 0.303864 0.322581 0.331907 0.238556 0.322581 0.232568 -0.190553 0.0756804 -0.178668 0.0719479 0.0756804 0.313551 0.0719479 0.292557 -0.178668 0.0719479 -0.166866 0.0691067 0.0719479 0.292557 0.0691067 0.278316 0.278316 0.392311 0.260156 0.366347 0.392311 0.371105 0.366347 0.345076 0.260156 0.366347 0.248615 0.34627 0.366347 0.345076 0.34627 0.328816 0.248615 0.34627 0.238612 0.332106 0.34627 0.328816 0.332106 0.313694 0.238612 0.332106 0.232568 0.322581 0.332106 0.313694 0.322581 0.303864 0.328816 0.198487 0.313694 0.188789 0.198487 1.36925e-16 0.188789 1.28629e-16 0.313694 0.188789 0.303864 0.182727 0.188789 1.28629e-16 0.182727 1.20836e-16 0 0.225648 0 0.217856 0.225648 0.431969 0.217856 0.417025 0 0.217856 0 0.210363 0.217856 0.417025 0.210363 0.402668 0.496704 0.691106 0.479881 0.667979 0.691106 0.825989 0.667979 0.799292 0.479881 0.667979 0.46348 0.645354 0.667979 0.799292 0.645354 0.771871 0.46348 0.645354 0.447497 0.622966 0.645354 0.771871 0.622966 0.745821 0.447497 0.622966 0.431969 0.601273 0.622966 0.745821 0.601273 0.718244 0.799292 0.86045 0.771871 0.832623 0.876865 0.788477 0.843085 0.75828 0.788477 0.632185 0.75828 0.60687 0.843085 0.75828 0.823587 0.708223 0.75828 0.60687 0.708223 0.592859 0.771871 0.832623 0.745821 0.8042 0.832623 0.823587 0.8042 0.793377 0.8042 0.793377 0.774196 0.763166 0.431969 0.601273 0.417025 0.580266 0.601273 0.718244 0.580266 0.69373 0.417025 0.580266 0.402668 0.560408 0.580266 0.69373 0.560408 0.669353 0 0.210363 0 0.203142 0.210363 0.402668 0.203142 0.38884 0 0.203142 0 0.1961 0.203142 0.38884 0.1961 0.375479 0.774196 0.763166 0.747425 0.737005 0.747425 0.737005 0.721291 0.710843 0.402668 0.560408 0.38884 0.541168 0.560408 0.669353 0.541168 0.647599 0.38884 0.541168 0.375479 0.522353 0.541168 0.647599 0.522353 0.624549 0.721291 0.710843 0.697856 0.687638 0.647599 0.697856 0.624549 0.672241 0.697856 0.687638 0.672241 0.664432 0.632185 0.42145 0.60687 0.406287 0.42145 0.174419 0.406287 0.167258 0.60687 0.406287 0.592859 0.391823 0.406287 0.167258 0.391823 0.160096 0.592859 0.391823 0.570626 0.377891 0.391823 0.160096 0.377891 0.153308 0.570626 0.377891 0.548393 0.363638 0.377891 0.153308 0.363638 0.14652 -0.743371 -0.855547 -0.723133 -0.828191 -0.723133 -0.828191 -0.702895 -0.776862 -0.828191 -0.862977 -0.776862 -0.85083 -0.271073 -0.442705 -0.263828 -0.429945 -0.442705 -0.579297 -0.429945 -0.554458 -0.263828 -0.429945 -0.256583 -0.417741 -0.429945 -0.554458 -0.417741 -0.546576 -0.579297 -0.639041 -0.554458 -0.637563 -0.639041 -0.698784 -0.637563 -0.660717 -0.554458 -0.637563 -0.546576 -0.601874 -0.637563 -0.660717 -0.601874 -0.657171 -0.256583 -0.417741 -0.249578 -0.406547 -0.417741 -0.546576 -0.406547 -0.53058 -0.249578 -0.406547 -0.242574 -0.393725 -0.406547 -0.53058 -0.393725 -0.514583 0 0.259527 0 0.250673 0.259527 0.496704 0.250673 0.479881 0 0.250673 0 0.242075 0.250673 0.479881 0.242075 0.46348 0 0.242075 0 0.233729 0.242075 0.46348 0.233729 0.447497 0 0.233729 0 0.225648 0.233729 0.447497 0.225648 0.431969 0.174419 0.42145 0.167299 0.406323 0.42145 0.632185 0.406323 0.606901 0.167299 0.406323 0.16018 0.391899 0.406323 0.606901 0.391899 0.59292 0.16018 0.391899 0.153483 0.378005 0.391899 0.59292 0.378005 0.57069 0.153483 0.378005 0.146787 0.363732 0.378005 0.57069 0.363732 0.548461 0.718278 0.601297 0.693766 0.580293 0.601297 0.431985 0.580293 0.417043 0.693766 0.580293 0.66939 0.560436 0.580293 0.417043 0.560436 0.402686 0.431985 0.225656 0.417043 0.217865 0.225656 2.89871e-16 0.217865 2.80952e-16 0.417043 0.217865 0.402686 0.210372 0.217865 2.80952e-16 0.210372 2.72308e-16 0.66939 0.560436 0.647633 0.541195 0.560436 0.402686 0.541195 0.388858 0.647633 0.541195 0.62458 0.522378 0.541195 0.388858 0.522378 0.375496 0.402686 0.210372 0.388858 0.203151 0.210372 2.72308e-16 0.203151 2.6393e-16 0.388858 0.203151 0.375496 0.196108 0.203151 2.6393e-16 0.196108 2.5581e-16 -0.855547 -0.743371 -0.828179 -0.723102 -0.862977 -0.828179 -0.85083 -0.776832 -0.828179 -0.723102 -0.776832 -0.702834 -0.698784 -0.641199 -0.660717 -0.638211 -0.641199 -0.583614 -0.638211 -0.553396 -0.660717 -0.638211 -0.657171 -0.60174 -0.638211 -0.553396 -0.60174 -0.546309 -0.583614 -0.428646 -0.553396 -0.428858 -0.428646 -0.273678 -0.428858 -0.26463 -0.553396 -0.428858 -0.546309 -0.417325 -0.428858 -0.26463 -0.417325 -0.255582 -0.546309 -0.417325 -0.530405 -0.40624 -0.417325 -0.255582 -0.40624 -0.249049 -0.530405 -0.40624 -0.514501 -0.393583 -0.40624 -0.249049 -0.393583 -0.242516 0 0.1961 0 0.189681 0.1961 0.375479 0.189681 0.361569 0 0.189681 0 0.17858 0.189681 0.361569 0.17858 0.35716 0.375479 0.522353 0.361569 0.504993 0.522353 0.624549 0.504993 0.600822 0.361569 0.504993 0.35716 0.475166 0.504993 0.600822 0.475166 0.593172 0.624549 0.672241 0.600822 0.648988 0.672241 0.664432 0.648988 0.632851 0.600822 0.648988 0.593172 0.609798 0.648988 0.632851 0.609798 0.626425 0.664432 0.570562 0.632851 0.569159 0.570562 0.476691 0.569159 0.452724 0.632851 0.569159 0.626425 0.535823 0.569159 0.452724 0.535823 0.445221 0.632185 0.788477 0.606901 0.758304 0.788477 0.876865 0.758304 0.843105 0.606901 0.758304 0.59292 0.708271 0.758304 0.843105 0.708271 0.823622 0.860465 0.799303 0.832649 0.771891 0.548393 0.363638 0.529198 0.349991 0.363638 0.14652 0.349991 0.140554 0.529198 0.349991 0.510003 0.337436 0.349991 0.140554 0.337436 0.134588 0.823622 0.832649 0.793419 0.804236 0.832649 0.771891 0.804236 0.74585 0.793419 0.804236 0.763215 0.774238 0.825989 0.691106 0.799303 0.667987 0.691106 0.496704 0.667987 0.479886 0.799303 0.667987 0.771891 0.645369 0.667987 0.479886 0.645369 0.463489 0.771891 0.645369 0.74585 0.622986 0.645369 0.463489 0.622986 0.44751 0.74585 0.622986 0.718278 0.601297 0.622986 0.44751 0.601297 0.431985 0.510003 0.337436 0.493347 0.325283 0.337436 0.134588 0.325283 0.129795 0.493347 0.325283 0.476691 0.312874 0.325283 0.129795 0.312874 0.123545 0.763215 0.774238 0.73705 0.747468 0.73705 0.747468 0.710884 0.721333 0.134588 -0.0782365 0.129795 -0.0776532 -0.0782365 -0.291061 -0.0776532 -0.276858 0.129795 -0.0776532 0.123545 -0.0737642 -0.0776532 -0.276858 -0.0737642 -0.271073 0.710884 0.721333 0.68767 0.697895 0.68767 0.697895 0.664455 0.672273 0.697895 0.647633 0.672273 0.62458 -0.291061 -0.45516 -0.276858 -0.456121 -0.45516 -0.619259 -0.456121 -0.599278 -0.276858 -0.456121 -0.271073 -0.442705 -0.456121 -0.599278 -0.442705 -0.579297 0.476593 0.570524 0.45264 0.569138 0.570524 0.664455 0.569138 0.632861 0.45264 0.569138 0.445171 0.535804 0.569138 0.632861 0.535804 0.626438 0.664455 0.672273 0.632861 0.649013 0.672273 0.62458 0.649013 0.600848 0.632861 0.649013 0.626438 0.609817 0.649013 0.600848 0.609817 0.593195 0.62458 0.522378 0.600848 0.505015 0.522378 0.375496 0.505015 0.361584 0.600848 0.505015 0.593195 0.475184 0.505015 0.361584 0.475184 0.357174 0.375496 0.196108 0.361584 0.189688 0.196108 2.5581e-16 0.189688 2.4794e-16 0.361584 0.189688 0.357174 0.178587 0.189688 2.4794e-16 0.178587 2.40311e-16 0.476691 0.312874 0.452724 0.30165 0.312874 0.123545 0.30165 0.118658 0.452724 0.30165 0.445221 0.291113 0.30165 0.118658 0.291113 0.113771 0.445221 0.291113 0.430305 0.281636 0.291113 0.113771 0.281636 0.109018 0.430305 0.281636 0.415389 0.270668 0.281636 0.109018 0.270668 0.104264 0.146787 0.363732 0.14054 0.349993 0.363732 0.548461 0.349993 0.529209 0.14054 0.349993 0.134294 0.337245 0.349993 0.529209 0.337245 0.509958 0.134294 0.337245 0.128777 0.325021 0.337245 0.509958 0.325021 0.493275 0.128777 0.325021 0.123259 0.312611 0.325021 0.493275 0.312611 0.476593 0.496704 0.259527 0.479886 0.250675 0.259527 3.28467e-16 0.250675 3.18361e-16 0.479886 0.250675 0.463489 0.24208 0.250675 3.18361e-16 0.24208 3.08566e-16 0.463489 0.24208 0.44751 0.233735 0.24208 3.08566e-16 0.233735 2.99072e-16 0.44751 0.233735 0.431985 0.225656 0.233735 2.99072e-16 0.225656 2.89871e-16 0.123259 0.312611 0.118385 0.301484 0.312611 0.476593 0.301484 0.45264 0.118385 0.301484 0.113511 0.290994 0.301484 0.45264 0.290994 0.445171 0.113511 0.290994 0.108932 0.28158 0.290994 0.445171 0.28158 0.430278 0.108932 0.28158 0.104353 0.270666 0.28158 0.430278 0.270666 0.415385 0.415389 0.270668 0.394751 0.259815 0.270668 0.104264 0.259815 0.0992703 0.394751 0.259815 0.381776 0.249506 0.259815 0.0992703 0.249506 0.0942768 0.381776 0.249506 0.368143 0.240071 0.249506 0.0942768 0.240071 0.0914829 0.368143 0.240071 0.358654 0.223671 0.240071 0.0914829 0.223671 0.0886891 0.334995 0.208197 0.320783 0.208005 0.208197 0.0813997 0.208005 0.0785469 0.320783 0.208005 0.313554 0.194624 0.208005 0.0785469 0.194624 0.0756941 -0.216158 -0.348833 -0.20983 -0.339082 -0.348833 -0.455099 -0.339082 -0.441259 -0.20983 -0.339082 -0.203503 -0.327914 -0.339082 -0.441259 -0.327914 -0.427419 -0.203503 -0.327914 -0.197022 -0.3168 -0.327914 -0.427419 -0.3168 -0.408361 -0.197022 -0.3168 -0.19054 -0.306026 -0.3168 -0.408361 -0.306026 -0.396124 -0.427419 -0.470209 -0.408361 -0.467977 -0.470209 -0.512998 -0.467977 -0.486252 -0.408361 -0.467977 -0.396124 -0.452815 -0.467977 -0.486252 -0.452815 -0.472535 -0.242574 -0.393725 -0.235515 -0.381015 -0.393725 -0.514583 -0.381015 -0.49223 -0.235515 -0.381015 -0.228456 -0.368794 -0.381015 -0.49223 -0.368794 -0.478181 -0.514583 -0.566545 -0.49223 -0.56462 -0.566545 -0.618507 -0.56462 -0.586801 -0.49223 -0.56462 -0.478181 -0.546979 -0.56462 -0.586801 -0.546979 -0.5709 -0.228456 -0.368794 -0.222307 -0.358619 -0.368794 -0.478181 -0.358619 -0.462966 -0.222307 -0.358619 -0.216158 -0.348833 -0.358619 -0.462966 -0.348833 -0.455099 -0.478181 -0.546979 -0.462966 -0.5308 -0.546979 -0.5709 -0.5308 -0.551737 -0.462966 -0.5308 -0.455099 -0.500804 -0.5308 -0.551737 -0.500804 -0.54651 -0.19054 -0.306026 -0.184569 -0.296899 -0.306026 -0.396124 -0.296899 -0.382923 -0.184569 -0.296899 -0.178597 -0.28811 -0.296899 -0.382923 -0.28811 -0.375821 -0.396124 -0.452815 -0.382923 -0.438876 -0.452815 -0.472535 -0.438876 -0.456152 -0.382923 -0.438876 -0.375821 -0.413581 -0.438876 -0.456152 -0.413581 -0.45134 -0.178597 -0.28811 -0.172629 -0.279415 -0.28811 -0.375821 -0.279415 -0.363974 -0.172629 -0.279415 -0.16666 -0.269667 -0.279415 -0.363974 -0.269667 -0.352126 0.223838 0.297421 0.215534 0.29822 0.297421 0.371003 0.29822 0.35796 0.215534 0.29822 0.207231 0.289879 0.29822 0.35796 0.289879 0.344917 0.207231 0.289879 0.202807 0.280503 0.289879 0.344917 0.280503 0.33677 0.202807 0.280503 0.198383 0.263503 0.280503 0.33677 0.263503 0.328623 -0.618507 -0.566504 -0.586801 -0.564602 -0.566504 -0.514501 -0.564602 -0.492194 -0.586801 -0.564602 -0.5709 -0.546972 -0.564602 -0.492194 -0.546972 -0.478169 -0.514501 -0.393583 -0.492194 -0.380975 -0.393583 -0.242516 -0.380975 -0.235478 -0.492194 -0.380975 -0.478169 -0.368779 -0.380975 -0.235478 -0.368779 -0.228439 -0.5709 -0.546972 -0.551737 -0.530798 -0.546972 -0.478169 -0.530798 -0.462962 -0.551737 -0.530798 -0.54651 -0.500803 -0.530798 -0.462962 -0.500803 -0.455097 -0.478169 -0.368779 -0.462962 -0.358613 -0.368779 -0.228439 -0.358613 -0.222297 -0.462962 -0.358613 -0.455097 -0.348829 -0.358613 -0.222297 -0.348829 -0.216154 0.104353 0.270666 0.0993194 0.259835 0.270666 0.415385 0.259835 0.394759 0.0993194 0.259835 0.0942854 0.24952 0.259835 0.394759 0.24952 0.381788 0.0942854 0.24952 0.0914919 0.240082 0.24952 0.381788 0.240082 0.368156 0.0914919 0.240082 0.0886984 0.223683 0.240082 0.368156 0.223683 0.358668 0 0.166628 0 0.164689 0.166628 0.333256 0.164689 0.314486 0 0.164689 0 0.153469 0.164689 0.314486 0.153469 0.306937 0.333256 0.443466 0.314486 0.440282 0.443466 0.553676 0.440282 0.523385 0.314486 0.440282 0.306937 0.425393 0.440282 0.523385 0.425393 0.507903 0.306937 0.425393 0.296761 0.411937 0.425393 0.507903 0.411937 0.49148 0.296761 0.411937 0.286585 0.398479 0.411937 0.49148 0.398479 0.475592 -0.455097 -0.348829 -0.441257 -0.339079 -0.348829 -0.216154 -0.339079 -0.209826 -0.441257 -0.339079 -0.427418 -0.327913 -0.339079 -0.209826 -0.327913 -0.203499 -0.512998 -0.470208 -0.486252 -0.467978 -0.470208 -0.427418 -0.467978 -0.408362 -0.486252 -0.467978 -0.472535 -0.452818 -0.467978 -0.408362 -0.452818 -0.396131 -0.427418 -0.327913 -0.408362 -0.316802 -0.327913 -0.203499 -0.316802 -0.197026 -0.408362 -0.316802 -0.396131 -0.306037 -0.316802 -0.197026 -0.306037 -0.190553 0.0814084 0.208209 0.0785444 0.208009 0.208209 0.335009 0.208009 0.320793 0.0785444 0.208009 0.0756804 0.194616 0.208009 0.320793 0.194616 0.313551 -0.472535 -0.452818 -0.456152 -0.438884 -0.452818 -0.396131 -0.438884 -0.38294 -0.456152 -0.438884 -0.45134 -0.413596 -0.438884 -0.38294 -0.413596 -0.375853 -0.396131 -0.306037 -0.38294 -0.296926 -0.306037 -0.190553 -0.296926 -0.184611 -0.38294 -0.296926 -0.375853 -0.288163 -0.296926 -0.184611 -0.288163 -0.178668 -0.375853 -0.288163 -0.364014 -0.279499 -0.288163 -0.178668 -0.279499 -0.172767 -0.364014 -0.279499 -0.352175 -0.26977 -0.279499 -0.172767 -0.26977 -0.166866 0.553676 0.569415 0.523385 0.565164 0.569415 0.585153 0.565164 0.552964 0.523385 0.565164 0.507903 0.545817 0.565164 0.552964 0.545817 0.536585 0.585153 0.500271 0.552964 0.497048 0.500271 0.415389 0.497048 0.394751 0.552964 0.497048 0.536585 0.48004 0.497048 0.394751 0.48004 0.381776 0.507903 0.545817 0.49148 0.528391 0.545817 0.536585 0.528391 0.519233 0.49148 0.528391 0.475592 0.511319 0.528391 0.519233 0.511319 0.502521 0.536585 0.48004 0.519233 0.464717 0.48004 0.381776 0.464717 0.368143 0.519233 0.464717 0.502521 0.449846 0.464717 0.368143 0.449846 0.358654 0.415385 0.500275 0.394759 0.497057 0.500275 0.585165 0.497057 0.552976 0.394759 0.497057 0.381788 0.480052 0.497057 0.552976 0.480052 0.536599 0.585165 0.569429 0.552976 0.565179 0.569429 0.553693 0.565179 0.523399 0.552976 0.565179 0.536599 0.545831 0.565179 0.523399 0.545831 0.507917 0.381788 0.480052 0.368156 0.464731 0.480052 0.536599 0.464731 0.519248 0.368156 0.464731 0.358668 0.449862 0.464731 0.519248 0.449862 0.502538 0.536599 0.545831 0.519248 0.528407 0.545831 0.507917 0.528407 0.491494 0.519248 0.528407 0.502538 0.511337 0.528407 0.491494 0.511337 0.475608 0.371105 0.29751 0.35809 0.298339 0.29751 0.223914 0.298339 0.215623 0.35809 0.298339 0.345076 0.290017 0.298339 0.215623 0.290017 0.207331 0.345076 0.290017 0.336946 0.280653 0.290017 0.207331 0.280653 0.202909 0.336946 0.280653 0.328816 0.263651 0.280653 0.202909 0.263651 0.198487 0.553693 0.443479 0.523399 0.440294 0.443479 0.333266 0.440294 0.314495 0.523399 0.440294 0.507917 0.425404 0.440294 0.314495 0.425404 0.306945 0.333266 0.166633 0.314495 0.164693 0.166633 2.25752e-16 0.164693 2.18806e-16 0.314495 0.164693 0.306945 0.153473 0.164693 2.18806e-16 0.153473 2.12074e-16 0.507917 0.425404 0.491494 0.411949 0.425404 0.306945 0.411949 0.29677 0.491494 0.411949 0.475608 0.398492 0.411949 0.29677 0.398492 0.286595 0.286585 0.398479 0.277028 0.385357 0.398479 0.475592 0.385357 0.460128 0.277028 0.385357 0.267471 0.372757 0.385357 0.460128 0.372757 0.445062 0.267471 0.372757 0.260532 0.359996 0.372757 0.445062 0.359996 0.429769 0.260532 0.359996 0.253592 0.336853 0.359996 0.429769 0.336853 0.420114 0.475592 0.511319 0.460128 0.49476 0.511319 0.502521 0.49476 0.48625 0.460128 0.49476 0.445062 0.478696 0.49476 0.48625 0.478696 0.470535 0.502521 0.449846 0.48625 0.435459 0.449846 0.358654 0.435459 0.346824 0.48625 0.435459 0.470535 0.420867 0.435459 0.346824 0.420867 0.334995 0.445062 0.478696 0.429769 0.46371 0.478696 0.470535 0.46371 0.455388 0.429769 0.46371 0.420114 0.44917 0.46371 0.455388 0.44917 0.440845 0.470535 0.420867 0.455388 0.407133 0.420867 0.334995 0.407133 0.320783 0.455388 0.407133 0.440845 0.393959 0.407133 0.320783 0.393959 0.313554 0.420114 0.44917 0.405742 0.434906 0.44917 0.440845 0.434906 0.426615 0.405742 0.434906 0.391371 0.420547 0.434906 0.426615 0.420547 0.412458 0.440845 0.393959 0.426615 0.381454 0.393959 0.313554 0.381454 0.303085 0.426615 0.381454 0.412458 0.368989 0.381454 0.303085 0.368989 0.292617 0.391371 0.420547 0.381187 0.406528 0.420547 0.412458 0.406528 0.39715 0.381187 0.406528 0.371003 0.381674 0.406528 0.39715 0.381674 0.392345 0.412458 0.368989 0.39715 0.356933 0.368989 0.292617 0.356933 0.285571 0.39715 0.356933 0.392345 0.335436 0.356933 0.285571 0.335436 0.278526 0.278526 0.173963 0.269734 0.175548 0.173963 0.0693996 0.175548 0.0675056 0.269734 0.175548 0.260941 0.171489 0.175548 0.0675056 0.171489 0.0656116 0.260941 0.171489 0.2545 0.167261 0.171489 0.0656116 0.167261 0.064988 0.2545 0.167261 0.248059 0.1