# vtk DataFile Version 3.0
#This file was generated by the deal.II library on 2018/12/4 at 0:47:16
ASCII
DATASET UNSTRUCTURED_GRID

POINTS 35104 double
0.96875 0.59375 0
1 0.59375 0
0.96875 0.625 0
1 0.625 0
0.59375 0.96875 0
0.625 0.96875 0
0.59375 1 0
0.625 1 0
0.28125 0.65625 0
0.3125 0.65625 0
0.28125 0.6875 0
0.3125 0.6875 0
0.28125 0.6875 0
0.3125 0.6875 0
0.28125 0.71875 0
0.3125 0.71875 0
0.6875 0.65625 0
0.71875 0.65625 0
0.6875 0.6875 0
0.71875 0.6875 0
0.6875 0.6875 0
0.71875 0.6875 0
0.6875 0.71875 0
0.71875 0.71875 0
0.3125 0.5 0
0.34375 0.5 0
0.3125 0.53125 0
0.34375 0.53125 0
0.3125 0.53125 0
0.34375 0.53125 0
0.3125 0.5625 0
0.34375 0.5625 0
0.3125 0.5625 0
0.34375 0.5625 0
0.3125 0.59375 0
0.34375 0.59375 0
0.34375 0.5625 0
0.375 0.5625 0
0.34375 0.59375 0
0.375 0.59375 0
0.3125 0.59375 0
0.34375 0.59375 0
0.3125 0.625 0
0.34375 0.625 0
0.34375 0.59375 0
0.375 0.59375 0
0.34375 0.625 0
0.375 0.625 0
0.65625 0.5 0
0.6875 0.5 0
0.65625 0.53125 0
0.6875 0.53125 0
0.65625 0.53125 0
0.6875 0.53125 0
0.65625 0.5625 0
0.6875 0.5625 0
0.625 0.5625 0
0.65625 0.5625 0
0.625 0.59375 0
0.65625 0.59375 0
0.65625 0.5625 0
0.6875 0.5625 0
0.65625 0.59375 0
0.6875 0.59375 0
0.625 0.59375 0
0.65625 0.59375 0
0.625 0.625 0
0.65625 0.625 0
0.65625 0.59375 0
0.6875 0.59375 0
0.65625 0.625 0
0.6875 0.625 0
0.3125 0.75 0
0.34375 0.75 0
0.3125 0.78125 0
0.34375 0.78125 0
0.3125 0.78125 0
0.34375 0.78125 0
0.3125 0.8125 0
0.34375 0.8125 0
0.3125 0.8125 0
0.34375 0.8125 0
0.3125 0.84375 0
0.34375 0.84375 0
0.34375 0.8125 0
0.375 0.8125 0
0.34375 0.84375 0
0.375 0.84375 0
0.3125 0.84375 0
0.34375 0.84375 0
0.3125 0.875 0
0.34375 0.875 0
0.34375 0.84375 0
0.375 0.84375 0
0.34375 0.875 0
0.375 0.875 0
0.3125 0.875 0
0.34375 0.875 0
0.3125 0.90625 0
0.34375 0.90625 0
0.34375 0.875 0
0.375 0.875 0
0.34375 0.90625 0
0.375 0.90625 0
0.3125 0.90625 0
0.34375 0.90625 0
0.3125 0.9375 0
0.34375 0.9375 0
0.34375 0.90625 0
0.375 0.90625 0
0.34375 0.9375 0
0.375 0.9375 0
0.28125 0.9375 0
0.3125 0.9375 0
0.28125 0.96875 0
0.3125 0.96875 0
0.28125 0.96875 0
0.3125 0.96875 0
0.28125 1 0
0.3125 1 0
0.3125 0.9375 0
0.34375 0.9375 0
0.3125 0.96875 0
0.34375 0.96875 0
0.3125 0.96875 0
0.34375 0.96875 0
0.3125 1 0
0.34375 1 0
0.65625 0.75 0
0.6875 0.75 0
0.65625 0.78125 0
0.6875 0.78125 0
0.65625 0.78125 0
0.6875 0.78125 0
0.65625 0.8125 0
0.6875 0.8125 0
0.625 0.8125 0
0.65625 0.8125 0
0.625 0.84375 0
0.65625 0.84375 0
0.65625 0.8125 0
0.6875 0.8125 0
0.65625 0.84375 0
0.6875 0.84375 0
0.625 0.84375 0
0.65625 0.84375 0
0.625 0.875 0
0.65625 0.875 0
0.65625 0.84375 0
0.6875 0.84375 0
0.65625 0.875 0
0.6875 0.875 0
0.625 0.875 0
0.65625 0.875 0
0.625 0.90625 0
0.65625 0.90625 0
0.65625 0.875 0
0.6875 0.875 0
0.65625 0.90625 0
0.6875 0.90625 0
0.625 0.90625 0
0.65625 0.90625 0
0.625 0.9375 0
0.65625 0.9375 0
0.65625 0.90625 0
0.6875 0.90625 0
0.65625 0.9375 0
0.6875 0.9375 0
0.3125 0.625 0
0.34375 0.625 0
0.3125 0.65625 0
0.34375 0.65625 0
0.3125 0.65625 0
0.34375 0.65625 0
0.3125 0.6875 0
0.34375 0.6875 0
0.3125 0.6875 0
0.34375 0.6875 0
0.3125 0.71875 0
0.34375 0.71875 0
0.3125 0.71875 0
0.34375 0.71875 0
0.3125 0.75 0
0.34375 0.75 0
0.65625 0.625 0
0.6875 0.625 0
0.65625 0.65625 0
0.6875 0.65625 0
0.65625 0.65625 0
0.6875 0.65625 0
0.65625 0.6875 0
0.6875 0.6875 0
0.65625 0.6875 0
0.6875 0.6875 0
0.65625 0.71875 0
0.6875 0.71875 0
0.65625 0.71875 0
0.6875 0.71875 0
0.65625 0.75 0
0.6875 0.75 0
0.65625 0.9375 0
0.6875 0.9375 0
0.65625 0.96875 0
0.6875 0.96875 0
0.65625 0.96875 0
0.6875 0.96875 0
0.65625 1 0
0.6875 1 0
0.6875 0.9375 0
0.71875 0.9375 0
0.6875 0.96875 0
0.71875 0.96875 0
0.6875 0.96875 0
0.71875 0.96875 0
0.6875 1 0
0.71875 1 0
0 0.875 0
0.03125 0.875 0
0 0.90625 0
0.03125 0.90625 0
0 0.90625 0
0.03125 0.90625 0
0 0.9375 0
0.03125 0.9375 0
0 0.9375 0
0.03125 0.9375 0
0 0.96875 0
0.03125 0.96875 0
0.96875 0.875 0
1 0.875 0
0.96875 0.90625 0
1 0.90625 0
0.96875 0.90625 0
1 0.90625 0
0.96875 0.9375 0
1 0.9375 0
0.96875 0.9375 0
1 0.9375 0
0.96875 0.96875 0
1 0.96875 0
0.0625 0.15625 0
0.078125 0.15625 0
0.0625 0.171875 0
0.078125 0.171875 0
0.0625 0.171875 0
0.078125 0.171875 0
0.0625 0.1875 0
0.078125 0.1875 0
0.0625 0 0
0.078125 0 0
0.0625 0.015625 0
0.078125 0.015625 0
0.078125 0 0
0.09375 0 0
0.078125 0.015625 0
0.09375 0.015625 0
0.0625 0.015625 0
0.078125 0.015625 0
0.0625 0.03125 0
0.078125 0.03125 0
0.078125 0.015625 0
0.09375 0.015625 0
0.078125 0.03125 0
0.09375 0.03125 0
0.09375 0 0
0.109375 0 0
0.09375 0.015625 0
0.109375 0.015625 0
0.09375 0.015625 0
0.109375 0.015625 0
0.09375 0.03125 0
0.109375 0.03125 0
0.0625 0.03125 0
0.078125 0.03125 0
0.0625 0.046875 0
0.078125 0.046875 0
0.078125 0.03125 0
0.09375 0.03125 0
0.078125 0.046875 0
0.09375 0.046875 0
0.0625 0.046875 0
0.078125 0.046875 0
0.0625 0.0625 0
0.078125 0.0625 0
0.078125 0.046875 0
0.09375 0.046875 0
0.078125 0.0625 0
0.09375 0.0625 0
0.09375 0.03125 0
0.109375 0.03125 0
0.09375 0.046875 0
0.109375 0.046875 0
0.09375 0.046875 0
0.109375 0.046875 0
0.09375 0.0625 0
0.109375 0.0625 0
0.109375 0.046875 0
0.125 0.046875 0
0.109375 0.0625 0
0.125 0.0625 0
0.921875 0.15625 0
0.9375 0.15625 0
0.921875 0.171875 0
0.9375 0.171875 0
0.921875 0.171875 0
0.9375 0.171875 0
0.921875 0.1875 0
0.9375 0.1875 0
0.0625 0.0625 0
0.078125 0.0625 0
0.0625 0.078125 0
0.078125 0.078125 0
0.078125 0.0625 0
0.09375 0.0625 0
0.078125 0.078125 0
0.09375 0.078125 0
0.0625 0.078125 0
0.078125 0.078125 0
0.0625 0.09375 0
0.078125 0.09375 0
0.078125 0.078125 0
0.09375 0.078125 0
0.078125 0.09375 0
0.09375 0.09375 0
0.09375 0.0625 0
0.109375 0.0625 0
0.09375 0.078125 0
0.109375 0.078125 0
0.109375 0.0625 0
0.125 0.0625 0
0.109375 0.078125 0
0.125 0.078125 0
0.09375 0.078125 0
0.109375 0.078125 0
0.09375 0.09375 0
0.109375 0.09375 0
0.109375 0.078125 0
0.125 0.078125 0
0.109375 0.09375 0
0.125 0.09375 0
0.453125 0.328125 0
0.46875 0.328125 0
0.453125 0.34375 0
0.46875 0.34375 0
0.46875 0.328125 0
0.484375 0.328125 0
0.46875 0.34375 0
0.484375 0.34375 0
0.484375 0.328125 0
0.5 0.328125 0
0.484375 0.34375 0
0.5 0.34375 0
0.453125 0.34375 0
0.46875 0.34375 0
0.453125 0.359375 0
0.46875 0.359375 0
0.453125 0.359375 0
0.46875 0.359375 0
0.453125 0.375 0
0.46875 0.375 0
0.46875 0.34375 0
0.484375 0.34375 0
0.46875 0.359375 0
0.484375 0.359375 0
0.484375 0.34375 0
0.5 0.34375 0
0.484375 0.359375 0
0.5 0.359375 0
0.078125 0.25 0
0.09375 0.25 0
0.078125 0.265625 0
0.09375 0.265625 0
0.078125 0.265625 0
0.09375 0.265625 0
0.078125 0.28125 0
0.09375 0.28125 0
0.0625 0.09375 0
0.078125 0.09375 0
0.0625 0.109375 0
0.078125 0.109375 0
0.078125 0.09375 0
0.09375 0.09375 0
0.078125 0.109375 0
0.09375 0.109375 0
0.0625 0.109375 0
0.078125 0.109375 0
0.0625 0.125 0
0.078125 0.125 0
0.078125 0.109375 0
0.09375 0.109375 0
0.078125 0.125 0
0.09375 0.125 0
0.21875 0.109375 0
0.234375 0.109375 0
0.21875 0.125 0
0.234375 0.125 0
0.09375 0.09375 0
0.109375 0.09375 0
0.09375 0.109375 0
0.109375 0.109375 0
0.109375 0.09375 0
0.125 0.09375 0
0.109375 0.109375 0
0.125 0.109375 0
0.09375 0.109375 0
0.109375 0.109375 0
0.09375 0.125 0
0.109375 0.125 0
0.109375 0.109375 0
0.125 0.109375 0
0.109375 0.125 0
0.125 0.125 0
0.125 0.03125 0
0.140625 0.03125 0
0.125 0.046875 0
0.140625 0.046875 0
0.125 0.046875 0
0.140625 0.046875 0
0.125 0.0625 0
0.140625 0.0625 0
0.90625 0.25 0
0.921875 0.25 0
0.90625 0.265625 0
0.921875 0.265625 0
0.90625 0.265625 0
0.921875 0.265625 0
0.90625 0.28125 0
0.921875 0.28125 0
0.203125 0 0
0.21875 0 0
0.203125 0.015625 0
0.21875 0.015625 0
0.203125 0.015625 0
0.21875 0.015625 0
0.203125 0.03125 0
0.21875 0.03125 0
0.21875 0 0
0.234375 0 0
0.21875 0.015625 0
0.234375 0.015625 0
0.234375 0 0
0.25 0 0
0.234375 0.015625 0
0.25 0.015625 0
0.21875 0.015625 0
0.234375 0.015625 0
0.21875 0.03125 0
0.234375 0.03125 0
0.234375 0.015625 0
0.25 0.015625 0
0.234375 0.03125 0
0.25 0.03125 0
0.203125 0.03125 0
0.21875 0.03125 0
0.203125 0.046875 0
0.21875 0.046875 0
0.203125 0.046875 0
0.21875 0.046875 0
0.203125 0.0625 0
0.21875 0.0625 0
0.21875 0.03125 0
0.234375 0.03125 0
0.21875 0.046875 0
0.234375 0.046875 0
0.234375 0.03125 0
0.25 0.03125 0
0.234375 0.046875 0
0.25 0.046875 0
0.21875 0.046875 0
0.234375 0.046875 0
0.21875 0.0625 0
0.234375 0.0625 0
0.234375 0.046875 0
0.25 0.046875 0
0.234375 0.0625 0
0.25 0.0625 0
0.125 0.0625 0
0.140625 0.0625 0
0.125 0.078125 0
0.140625 0.078125 0
0.125 0.078125 0
0.140625 0.078125 0
0.125 0.09375 0
0.140625 0.09375 0
0.140625 0.078125 0
0.15625 0.078125 0
0.140625 0.09375 0
0.15625 0.09375 0
0.15625 0.0625 0
0.171875 0.0625 0
0.15625 0.078125 0
0.171875 0.078125 0
0.5 0.328125 0
0.515625 0.328125 0
0.5 0.34375 0
0.515625 0.34375 0
0.515625 0.328125 0
0.53125 0.328125 0
0.515625 0.34375 0
0.53125 0.34375 0
0.53125 0.328125 0
0.546875 0.328125 0
0.53125 0.34375 0
0.546875 0.34375 0
0.5 0.34375 0
0.515625 0.34375 0
0.5 0.359375 0
0.515625 0.359375 0
0.515625 0.34375 0
0.53125 0.34375 0
0.515625 0.359375 0
0.53125 0.359375 0
0.53125 0.34375 0
0.546875 0.34375 0
0.53125 0.359375 0
0.546875 0.359375 0
0.53125 0.359375 0
0.546875 0.359375 0
0.53125 0.375 0
0.546875 0.375 0
0.0625 0.125 0
0.078125 0.125 0
0.0625 0.140625 0
0.078125 0.140625 0
0.078125 0.125 0
0.09375 0.125 0
0.078125 0.140625 0
0.09375 0.140625 0
0.0625 0.140625 0
0.078125 0.140625 0
0.0625 0.15625 0
0.078125 0.15625 0
0.078125 0.140625 0
0.09375 0.140625 0
0.078125 0.15625 0
0.09375 0.15625 0
0.09375 0.125 0
0.109375 0.125 0
0.09375 0.140625 0
0.109375 0.140625 0
0.109375 0.125 0
0.125 0.125 0
0.109375 0.140625 0
0.125 0.140625 0
0.09375 0.140625 0
0.109375 0.140625 0
0.09375 0.15625 0
0.109375 0.15625 0
0.109375 0.140625 0
0.125 0.140625 0
0.109375 0.15625 0
0.125 0.15625 0
0.09375 0.15625 0
0.109375 0.15625 0
0.09375 0.171875 0
0.109375 0.171875 0
0.109375 0.15625 0
0.125 0.15625 0
0.109375 0.171875 0
0.125 0.171875 0
0.09375 0.171875 0
0.109375 0.171875 0
0.09375 0.1875 0
0.109375 0.1875 0
0.109375 0.171875 0
0.125 0.171875 0
0.109375 0.1875 0
0.125 0.1875 0
0 0.125 0
0.015625 0.125 0
0 0.140625 0
[...]
POINT_DATA 35104
SCALARS U double 1
LOOKUP_TABLE default
0.128354 1.63479e-16 0.124393 1.58449e-16 -0.194639 -0.117658 -0.188043 -0.113433 0.192574 0.0769926 0.186623 0.0747297 0.186623 0.0747297 0.18115 0.0726157 0.0769784 0.192561 0.0747106 0.186604 0.0747106 0.186604 0.0725913 0.181126 0.0900648 -0.0531403 0.0870717 -0.0516046 0.0870717 -0.0516046 0.0842678 -0.0503605 0.0842678 -0.0503605 0.0816049 -0.0488186 -0.0503605 -0.181031 -0.0488186 -0.175363 0.0816049 -0.0488186 0.0790306 -0.0472806 -0.0488186 -0.175363 -0.0472806 -0.170019 -0.053135 0.0900678 -0.0516041 0.0870693 -0.0516041 0.0870693 -0.0503638 0.0842627 -0.181033 -0.0503638 -0.175369 -0.0488251 -0.0503638 0.0842627 -0.0488251 0.0815979 -0.175369 -0.0488251 -0.170028 -0.0472905 -0.0488251 0.0815979 -0.0472905 0.0790206 0.0703027 -0.0410095 0.0684601 -0.0394567 0.0684601 -0.0394567 0.0666604 -0.0381066 0.0666604 -0.0381066 0.064942 -0.0365389 -0.0381066 -0.139808 -0.0365389 -0.135055 0.064942 -0.0365389 0.0633371 -0.0350103 -0.0365389 -0.135055 -0.0350103 -0.130492 0.0633371 -0.0350103 0.0617515 -0.0334919 -0.0350103 -0.130492 -0.0334919 -0.126056 0.0617515 -0.0334919 0.0605624 -0.0320202 -0.0334919 -0.126056 -0.0320202 -0.121816 0.147767 0.0605624 0.143624 0.0591563 0.143624 0.0591563 0.139728 0.0578274 0.0605624 -0.0320202 0.0591563 -0.0303918 0.0591563 -0.0303918 0.0578274 -0.0290536 -0.0410368 0.070273 -0.0394876 0.0684255 -0.0394876 0.0684255 -0.0381385 0.0666229 -0.139835 -0.0381385 -0.135076 -0.0365664 -0.0381385 0.0666229 -0.0365664 0.0649063 -0.135076 -0.0365664 -0.130499 -0.0350246 -0.0365664 0.0649063 -0.0350246 0.0633119 -0.130499 -0.0350246 -0.12603 -0.0334819 -0.0350246 0.0633119 -0.0334819 0.0617427 -0.12603 -0.0334819 -0.121703 -0.0319957 -0.0334819 0.0617427 -0.0319957 0.0605607 0.0790306 -0.0472806 0.0769926 -0.0454919 0.0769926 -0.0454919 0.0747297 -0.0439894 0.0747297 -0.0439894 0.0726157 -0.0425055 0.0726157 -0.0425055 0.0703027 -0.0410095 -0.0472905 0.0790206 -0.0455057 0.0769784 -0.0455057 0.0769784 -0.0440075 0.0747106 -0.0440075 0.0747106 -0.0425282 0.0725913 -0.0425282 0.0725913 -0.0410368 0.070273 -0.0319957 0.0605607 -0.0303929 0.059156 -0.0303929 0.059156 -0.0290536 0.0578274 0.0605607 0.147769 0.059156 0.143611 0.059156 0.143611 0.0578274 0.139728 0 0.0971249 0 0.0941336 0 0.0941336 0 0.0913544 0 0.0913544 0 0.0887232 0.0971225 1.234e-16 0.0941313 1.19604e-16 0.0941313 1.19604e-16 0.0913527 1.15924e-16 0.0913527 1.15924e-16 0.0887223 1.12357e-16 0.382 0.461863 0.375936 0.454364 0.375936 0.454364 0.370233 0.447439 0.447643 0.541099 0.44062 0.532608 0.541099 0.622842 0.532608 0.61304 0.44062 0.532608 0.433709 0.524256 0.532608 0.61304 0.524256 0.603452 0.622842 0.691102 0.61304 0.680175 0.61304 0.680175 0.603452 0.669421 0.433709 0.524256 0.426904 0.51604 0.524256 0.603452 0.51604 0.594013 0.426904 0.51604 0.420199 0.507937 0.51604 0.594013 0.507937 0.58471 0.603452 0.669421 0.594013 0.659312 0.594013 0.659312 0.58471 0.648831 0.659312 0.710139 0.648831 0.698871 0.461866 0.382003 0.454368 0.375939 0.454368 0.375939 0.447443 0.370237 0.420199 0.507937 0.413589 0.499942 0.507937 0.58471 0.499942 0.57548 0.413589 0.499942 0.407075 0.492057 0.499942 0.57548 0.492057 0.566384 0.58471 0.648831 0.57548 0.638581 0.648831 0.698871 0.638581 0.687882 0.57548 0.638581 0.566384 0.628441 0.638581 0.687882 0.628441 0.677035 -0.528897 -0.559758 -0.520836 -0.551193 -0.559758 -0.578474 -0.551193 -0.569682 -0.578474 -0.584761 -0.569682 -0.575897 -0.520836 -0.551193 -0.512877 -0.542774 -0.512877 -0.542774 -0.505411 -0.53458 -0.551193 -0.569682 -0.542774 -0.56112 -0.569682 -0.575897 -0.56112 -0.567172 0.420086 0.483439 0.41336 0.475811 0.41336 0.475811 0.406985 0.468352 0.407075 0.492057 0.40066 0.484295 0.492057 0.566384 0.484295 0.557428 0.40066 0.484295 0.394349 0.476664 0.484295 0.557428 0.476664 0.548632 0.635344 0.578435 0.625148 0.569155 0.566384 0.628441 0.557428 0.618466 0.628441 0.677035 0.618466 0.665903 0.557428 0.618466 0.548632 0.608669 0.618466 0.665903 0.608669 0.655496 0.721317 0.75744 0.710139 0.745339 0.710139 0.745339 0.698871 0.733574 0.483446 0.420092 0.475819 0.413367 0.475819 0.413367 0.468361 0.406993 0.758635 0.710595 0.746664 0.699375 0.746664 0.699375 0.73489 0.688338 0.710595 0.647173 0.699375 0.636933 0.647173 0.569741 0.636933 0.560693 0.699375 0.636933 0.688338 0.626856 0.636933 0.560693 0.626856 0.551787 0.73489 0.688338 0.723311 0.677511 0.723311 0.677511 0.711967 0.666944 0.688338 0.626856 0.677511 0.616959 0.626856 0.551787 0.616959 0.542996 0.677511 0.616959 0.666944 0.607308 0.616959 0.542996 0.607308 0.5343 0.698871 0.733574 0.687882 0.722435 0.687882 0.722435 0.677035 0.711112 0.722435 0.741236 0.711112 0.729065 0.752809 0.75557 0.741236 0.743643 -0.584761 -0.578469 -0.575897 -0.569678 -0.578469 -0.559748 -0.569678 -0.551186 -0.559748 -0.528881 -0.551186 -0.520829 -0.575897 -0.569678 -0.567172 -0.561117 -0.569678 -0.551186 -0.561117 -0.542769 -0.551186 -0.520829 -0.542769 -0.512872 -0.542769 -0.512872 -0.534575 -0.505404 0.394349 0.476664 0.388143 0.469174 0.476664 0.548632 0.469174 0.540006 0.388143 0.469174 0.382 0.461863 0.469174 0.540006 0.461863 0.531587 0.548632 0.608669 0.540006 0.599102 0.608669 0.655496 0.599102 0.6452 0.540006 0.599102 0.531587 0.589655 0.599102 0.6452 0.589655 0.635063 0.531587 0.589655 0.522968 0.580355 0.589655 0.635063 0.580355 0.625056 0.522968 0.580355 0.514828 0.571186 0.580355 0.625056 0.571186 0.615182 0 0.104151 0 0.102506 0.104151 0.206047 0.102506 0.202795 0 0.102506 0 0.100885 0.102506 0.202795 0.100885 0.199587 0.697311 0.684802 0.686519 0.67383 0.684211 0.686519 0.673209 0.675563 0.686519 0.67383 0.675563 0.663187 0.673209 0.675563 0.662528 0.664843 0.675563 0.663187 0.664843 0.652731 0.514828 0.571186 0.506736 0.562242 0.571186 0.615182 0.562242 0.605392 0.506736 0.562242 0.498791 0.553441 0.562242 0.605392 0.553441 0.596224 0.498791 0.553441 0.4909 0.544815 0.553441 0.596224 0.544815 0.586837 0.4909 0.544815 0.483439 0.536275 0.544815 0.586837 0.536275 0.577573 0.662528 0.664843 0.651957 0.654369 0.664843 0.652731 0.654369 0.642431 0.651957 0.654369 0.642039 0.644061 0.654369 0.642431 0.644061 0.632257 0.596224 0.626214 0.586837 0.616081 0.626214 0.642039 0.616081 0.631902 0.586837 0.616081 0.577573 0.606329 0.616081 0.631902 0.606329 0.621907 0.642039 0.644061 0.631902 0.633957 0.644061 0.632257 0.633957 0.622129 0.631902 0.633957 0.621907 0.623971 0.633957 0.622129 0.623971 0.612593 -0.437536 -0.475384 -0.430891 -0.467814 -0.430891 -0.467814 -0.42433 -0.461032 -0.42433 -0.461032 -0.417849 -0.453998 -0.461032 -0.487767 -0.453998 -0.480316 -0.417849 -0.453998 -0.411655 -0.44717 -0.453998 -0.480316 -0.44717 -0.473024 0.625148 0.569155 0.615217 0.560105 0.615217 0.560105 0.605426 0.551121 0.605426 0.551121 0.595726 0.542242 0.595726 0.542242 0.586618 0.533917 0.569741 0.479976 0.560693 0.472305 0.479976 0.379821 0.472305 0.373684 0.560693 0.472305 0.551787 0.464761 0.472305 0.373684 0.464761 0.367644 0.551787 0.464761 0.542996 0.457349 0.464761 0.367644 0.457349 0.361775 0.542996 0.457349 0.5343 0.44976 0.626631 0.586618 0.616548 0.577276 0.616548 0.577276 0.60676 0.568087 0.586618 0.533917 0.577276 0.525438 0.533917 0.469833 0.525438 0.462159 0.577276 0.525438 0.568087 0.517046 0.525438 0.462159 0.517046 0.454731 0.60676 0.568087 0.597127 0.559189 0.568087 0.517046 0.559189 0.508729 0.517046 0.454731 0.508729 0.447451 0.508729 0.447451 0.500604 0.440327 0.258255 0.14929 0.254051 0.146688 -0.511153 -0.59701 -0.503453 -0.587979 -0.503453 -0.587979 -0.495872 -0.579101 0.5343 0.44976 0.525393 0.442567 0.525393 0.442567 0.517175 0.435495 -0.495872 -0.579101 -0.488389 -0.570348 -0.488389 -0.570348 -0.481052 -0.561579 0 0.100885 0 0.0993077 0.100885 0.199587 0.0993077 0.196402 0 0.0993077 0 0.0977592 0.0993077 0.196402 0.0977592 0.193446 -0.481052 -0.561579 -0.473825 -0.553323 -0.473825 -0.553323 -0.466724 -0.544872 -0.553323 -0.620756 -0.544872 -0.611202 -0.466724 -0.544872 -0.459713 -0.536613 -0.544872 -0.611202 -0.536613 -0.601928 -0.459713 -0.536613 -0.452832 -0.528557 -0.536613 -0.601928 -0.528557 -0.592724 -0.669944 -0.728376 -0.659764 -0.71726 -0.659764 -0.71726 -0.649819 -0.706299 -0.475376 -0.437526 -0.467807 -0.430882 -0.467807 -0.430882 -0.461027 -0.424323 -0.487763 -0.461027 -0.480313 -0.453993 -0.461027 -0.424323 -0.453993 -0.417843 -0.480313 -0.453993 -0.473022 -0.447167 -0.453993 -0.417843 -0.447167 -0.411651 -0.649819 -0.706299 -0.640037 -0.696081 -0.640037 -0.696081 -0.630406 -0.685669 -0.696081 -0.737195 -0.685669 -0.72589 -0.737195 -0.762016 -0.72589 -0.750382 -0.762016 -0.77036 -0.750382 -0.758593 -0.401613 -0.468462 -0.39566 -0.461506 -0.468462 -0.525354 -0.461506 -0.517473 -0.39566 -0.461506 -0.389781 -0.454608 -0.461506 -0.517473 -0.454608 -0.509691 -0.389781 -0.454608 -0.383969 -0.447798 -0.454608 -0.509691 -0.447798 -0.502033 -0.383969 -0.447798 -0.378235 -0.441071 -0.447798 -0.502033 -0.441071 -0.494488 -0.525354 -0.57102 -0.517473 -0.562327 -0.57102 -0.604243 -0.562327 -0.595085 -0.517473 -0.562327 -0.509691 -0.553829 -0.562327 -0.595085 -0.553829 -0.586054 -0.604243 -0.624555 -0.595085 -0.615023 -0.624555 -0.631361 -0.615023 -0.62172 -0.595085 -0.615023 -0.586054 -0.605671 -0.615023 -0.62172 -0.605671 -0.612253 -0.509691 -0.553829 -0.502033 -0.545473 -0.553829 -0.586054 -0.545473 -0.577181 -0.502033 -0.545473 -0.494488 -0.537323 -0.545473 -0.577181 -0.537323 -0.568422 -0.586054 -0.605671 -0.577181 -0.59647 -0.605671 -0.612253 -0.59647 -0.602946 -0.577181 -0.59647 -0.568422 -0.587408 -0.59647 -0.602946 -0.587408 -0.593784 0.412479 0.457714 0.406006 0.45019 0.406006 0.45019 0.399639 0.443466 0.399639 0.443466 0.393423 0.436488 0.443466 0.477546 0.436488 0.470022 0.393423 0.436488 0.387272 0.429777 0.436488 0.470022 0.429777 0.462642 -0.378235 -0.441071 -0.372587 -0.434571 -0.441071 -0.494488 -0.434571 -0.486824 -0.0770273 -0.190274 -0.0760678 -0.18744 -0.0760678 -0.18744 -0.0751272 -0.184824 0.379821 0.479976 0.373686 0.472307 0.479976 0.569741 0.472307 0.560694 0.373686 0.472307 0.367647 0.464764 0.472307 0.560694 0.464764 0.55179 0.453565 0.503182 0.446459 0.495299 0.446459 0.495299 0.439492 0.487745 0.495299 0.533579 0.487745 0.525081 0.149294 0.25826 0.146694 0.254057 0.367647 0.464764 0.36178 0.457353 0.464764 0.55179 0.457353 0.543 0.457353 0.543 0.449766 0.534306 0.449766 0.534306 0.442574 0.5254 0.442574 0.5254 0.435503 0.517183 0 0.118226 0 0.116371 0.118226 0.233893 0.116371 0.230223 0 0.116371 0 0.114545 0.116371 0.230223 0.114545 0.226611 0.533579 0.560032 0.525081 0.551147 0.560032 0.574387 0.551147 0.565318 0.574387 0.576272 0.565318 0.567189 0.576272 0.565661 0.567189 0.556649 0.525081 0.551147 0.516436 0.542366 0.551147 0.565318 0.542366 0.556482 0.516436 0.542366 0.508682 0.533832 0.565318 0.567189 0.556482 0.558246 0.567189 0.556649 0.558246 0.547949 0.551225 0.51605 0.542487 0.507507 0.565661 0.542487 0.556649 0.53399 0.542487 0.507507 0.53399 0.499814 0.556649 0.53399 0.547949 0.525515 0.53399 0.499814 0.525515 0.491898 0.525515 0.491898 0.517213 0.484092 0.499814 0.454921 0.491898 0.447512 0.454921 0.399737 0.447512 0.393411 0.491898 0.447512 0.484092 0.440377 0.447512 0.393411 0.440377 0.386937 0.440377 0.386937 0.4334 0.380853 0.476455 0.4334 0.46894 0.426702 0.4334 0.380853 0.426702 0.374837 0.655501 0.608673 0.645206 0.599106 0.608673 0.548636 0.599106 0.54001 0.645206 0.599106 0.635068 0.58966 0.599106 0.54001 0.58966 0.531591 0.548636 0.476667 0.54001 0.469177 0.476667 0.394351 0.469177 0.388146 0.54001 0.469177 0.531591 0.461866 0.469177 0.388146 0.461866 0.382003 0.470244 0.439892 0.462525 0.432976 0.462525 0.432976 0.455614 0.426162 0.635068 0.58966 0.625062 0.58036 0.58966 0.531591 0.58036 0.522973 0.625062 0.58036 0.615188 0.571192 0.58036 0.522973 0.571192 0.514833 0.386954 0.440394 0.380871 0.433418 0.380871 0.433418 0.374855 0.426721 0.433418 0.476474 0.426721 0.468959 0.615188 0.571192 0.6054 0.562249 0.571192 0.514833 0.562249 0.506742 0.6054 0.562249 0.596232 0.553448 0.562249 0.506742 0.553448 0.498797 0.596232 0.553448 0.586845 0.544822 0.553448 0.498797 0.544822 0.490907 0.586845 0.544822 0.577582 0.536283 0.544822 0.490907 0.536283 0.483446 0.439964 0.470224 0.433065 0.462878 0.433065 0.462878 0.426289 0.45578 0.462878 0.482567 0.45578 0.475014 -0.728376 -0.669944 -0.71726 -0.659764 -0.71726 -0.659764 -0.7063 -0.649819 -0.452832 -0.528557 -0.446077 -0.520642 -0.528557 -0.592724 -0.520642 -0.584108 -0.446077 -0.520642 -0.439423 -0.51286 -0.520642 -0.584108 -0.51286 -0.575259 -0.77036 -0.762016 -0.758593 -0.750383 -0.762016 -0.737196 -0.750383 -0.72589 -0.439423 -0.51286 -0.432861 -0.505115 -0.51286 -0.575259 -0.505115 -0.56661 -0.432861 -0.505115 -0.426388 -0.497498 -0.505115 -0.56661 -0.497498 -0.557743 -0.7063 -0.649819 -0.696082 -0.640038 -0.737196 -0.696082 -0.72589 -0.68567 -0.696082 -0.640038 -0.68567 -0.630408 0.457729 0.412495 0.450203 0.406021 0.450203 0.406021 0.443471 0.399651 -0.631361 -0.624554 -0.62172 -0.615015 -0.624554 -0.604231 -0.615015 -0.595065 -0.62172 -0.615015 -0.612253 -0.605663 -0.615015 -0.595065 -0.605663 -0.586038 -0.584108 -0.634922 -0.575259 -0.625177 -0.575259 -0.625177 -0.56661 -0.61585 0.477555 0.443471 0.470018 0.43647 0.443471 0.399651 0.43647 0.393424 0.470018 0.43647 0.462645 0.429624 0.43647 0.393424 0.429624 0.387256 -0.604231 -0.570958 -0.595065 -0.562292 -0.570958 -0.52525 -0.562292 -0.517448 -0.595065 -0.562292 -0.586038 -0.553807 -0.562292 -0.517448 -0.553807 -0.50968 0.462645 0.429624 0.455403 0.4229 0.429624 0.387256 0.4229 0.381195 0.455403 0.4229 0.448286 0.416299 0.4229 0.381195 0.416299 0.375241 -0.612253 -0.605663 -0.602946 -0.596462 -0.605663 -0.586038 -0.596462 -0.577167 -0.602946 -0.596462 -0.593784 -0.587402 -0.596462 -0.577167 -0.587402 -0.568409 -0.588352 -0.622588 -0.579431 -0.613127 -0.586038 -0.553807 -0.577167 -0.545453 -0.553807 -0.50968 -0.545453 -0.502006 -0.577167 -0.545453 -0.568409 -0.537302 -0.545453 -0.502006 -0.537302 -0.494448 0.516065 0.551239 0.507522 0.542502 0.507522 0.542502 0.49983 0.534006 0.542502 0.565676 0.534006 0.556665 0.399753 0.454938 0.393427 0.447528 0.454938 0.49983 0.447528 0.491915 0.393427 0.447528 0.386954 0.440394 0.447528 0.491915 0.440394 0.48411 0.49983 0.534006 0.491915 0.525531 0.534006 0.556665 0.525531 0.547965 0.491915 0.525531 0.48411 0.517231 0.448307 0.470479 0.441308 0.463203 0.441308 0.463203 0.434372 0.456087 0.463203 0.475022 0.456087 0.467682 -0.52525 -0.468497 -0.517448 -0.461495 -0.468497 -0.401641 -0.461495 -0.395661 -0.517448 -0.461495 -0.50968 -0.454611 -0.461495 -0.395661 -0.454611 -0.389769 -0.50968 -0.454611 -0.502006 -0.447847 -0.454611 -0.389769 -0.447847 -0.384036 -0.502006 -0.447847 -0.494448 -0.44092 0.475029 0.455614 0.467578 0.448441 0.455614 0.426162 0.448441 0.419495 0.467578 0.448441 0.460302 0.44147 0.448441 0.419495 0.44147 0.412909 -0.494448 -0.44092 -0.486802 -0.434458 0 0.114545 0 0.112747 0.114545 0.226611 0.112747 0.223054 0 0.112747 0 0.110976 0.112747 0.223054 0.110976 0.21955 0.483439 0.536275 0.475811 0.527864 0.536275 0.577573 0.527864 0.56847 0.475811 0.527864 0.468352 0.519524 0.527864 0.56847 0.519524 0.559512 0.468352 0.519524 0.460743 0.511322 0.519524 0.559512 0.511322 0.550694 0.460743 0.511322 0.453565 0.503182 0.511322 0.550694 0.503182 0.542101 0.565676 0.576286 0.556665 0.567204 0.576286 0.574401 0.567204 0.565333 0.574401 0.560045 0.565333 0.551162 0.560045 0.533592 0.551162 0.525095 0.556665 0.567204 0.547965 0.558263 0.567204 0.565333 0.558263 0.556498 0.565333 0.551162 0.556498 0.542381 0.551162 0.525095 0.542381 0.51645 0.542381 0.51645 0.533848 0.508697 0.577573 0.606329 0.56847 0.59676 0.606329 0.621907 0.59676 0.612093 0.56847 0.59676 0.559512 0.587353 0.59676 0.612093 0.587353 0.602441 0.621907 0.623971 0.612093 0.614147 0.623971 0.612593 0.614147 0.602878 0.612093 0.614147 0.602441 0.604444 0.614147 0.602878 0.604444 0.593313 0.503194 0.453575 0.495312 0.44647 0.533592 0.495312 0.525095 0.487758 0.495312 0.44647 0.487758 0.439504 0.559512 0.587353 0.550694 0.578107 0.587353 0.602441 0.578107 0.592943 0.550694 0.578107 0.542101 0.569006 0.578107 0.592943 0.569006 0.583596 0.602441 0.604444 0.592943 0.594903 0.604444 0.593313 0.594903 0.58391 0.592943 0.594903 0.583596 0.585515 0.594903 0.58391 0.585515 0.574749 0.612593 0.587962 0.602878 0.578495 0.587962 0.550324 0.578495 0.541489 0.602878 0.578495 0.593313 0.569281 0.578495 0.541489 0.569281 0.532858 0.550324 0.500604 0.541489 0.492685 0.500604 0.440327 0.492685 0.433073 0.541489 0.492685 0.532858 0.484811 0.492685 0.433073 0.484811 0.42622 0.593313 0.569281 0.58391 0.560236 0.569281 0.532858 0.560236 0.52439 0.58391 0.560236 0.574749 0.551225 0.560236 0.52439 0.551225 0.51605 -0.59701 -0.511153 -0.587979 -0.503453 -0.587979 -0.503453 -0.5791 -0.495871 0.532858 0.484811 0.52439 0.477131 0.484811 0.42622 0.477131 0.419364 0.52439 0.477131 0.51605 0.469717 0.477131 0.419364 0.469717 0.412852 -0.5791 -0.495871 -0.570348 -0.488389 -0.570348 -0.488389 -0.56158 -0.481053 0.569741 0.647173 0.560694 0.636934 0.647173 0.710595 0.636934 0.699376 0.560694 0.636934 0.55179 0.626859 0.636934 0.699376 0.626859 0.688341 -0.56158 -0.481053 -0.553326 -0.473827 -0.620758 -0.553326 -0.611207 -0.544878 -0.553326 -0.473827 -0.544878 -0.466729 0.710595 0.758635 0.699376 0.746665 0.699376 0.746665 0.688341 0.734892 -0.611207 -0.544878 -0.601938 -0.536626 -0.544878 -0.466729 -0.536626 -0.459724 -0.601938 -0.536626 -0.592741 -0.528584 -0.536626 -0.459724 -0.528584 -0.452855 0.55179 0.626859 0.543 0.616962 0.626859 0.688341 0.616962 0.677514 0.543 0.616962 0.534306 0.607313 0.616962 0.677514 0.607313 0.666948 -0.634908 -0.584142 -0.625091 -0.575269 -0.625091 -0.575269 -0.61556 -0.566235 -0.61556 -0.566235 -0.606187 -0.557748 -0.592741 -0.528584 -0.584142 -0.520706 -0.528584 -0.452855 -0.520706 -0.446127 -0.584142 -0.520706 -0.575269 -0.513108 -0.520706 -0.446127 -0.513108 -0.439523 0.688341 0.734892 0.677514 0.723314 0.677514 0.723314 0.666948 0.711971 0.757441 0.721318 0.745341 0.710141 0.745341 0.710141 0.733577 0.698873 -0.606187 -0.557748 -0.596974 -0.549326 -0.596974 -0.549326 -0.588359 -0.541424 -0.622655 -0.588359 -0.61313 -0.579647 -0.588359 -0.541424 -0.579647 -0.533262 0.206048 0.104151 0.202796 0.102507 0.104151 2.61239e-16 0.102507 2.57189e-16 0.202796 0.102507 0.199588 0.100886 0.102507 2.57189e-16 0.100886 2.53201e-16 -0.541424 -0.483034 -0.533262 -0.475636 -0.483034 -0.41392 -0.475636 -0.407725 -0.533262 -0.475636 -0.52525 -0.468497 -0.475636 -0.407725 -0.468497 -0.401641 0.578443 0.635352 0.569164 0.625157 0.569164 0.625157 0.560116 0.615227 0.560116 0.615227 0.551132 0.605437 0.551132 0.605437 0.542255 0.595737 0.542255 0.595737 0.533931 0.58663 0.469848 0.533931 0.462174 0.525452 0.533931 0.58663 0.525452 0.577289 0.462174 0.525452 0.454747 0.51706 0.525452 0.577289 0.51706 0.5681 0.58663 0.626642 0.577289 0.616559 0.577289 0.616559 0.5681 0.606772 0.454747 0.51706 0.447466 0.508744 0.51706 0.5681 0.508744 0.559202 0.447466 0.508744 0.440343 0.500618 0.5681 0.606772 0.559202 0.59714 0.755573 0.752812 0.743647 0.74124 0.733577 0.698873 0.722439 0.687885 0.74124 0.722439 0.729069 0.711116 0.722439 0.687885 0.711116 0.677039 0.691102 0.622842 0.680175 0.613041 0.680175 0.613041 0.669422 0.603453 0.470525 0.448286 0.463195 0.441263 0.475009 0.463195 0.467652 0.456072 0.463195 0.441263 0.456072 0.434362 0.622842 0.541099 0.613041 0.532608 0.541099 0.447643 0.532608 0.44062 0.613041 0.532608 0.603453 0.524257 0.532608 0.44062 0.524257 0.43371 0.669422 0.603453 0.659314 0.594014 0.710141 0.659314 0.698873 0.648833 0.659314 0.594014 0.648833 0.584712 0.603453 0.524257 0.594014 0.516041 0.524257 0.43371 0.516041 0.426905 0.594014 0.516041 0.584712 0.507938 0.516041 0.426905 0.507938 0.4202 0.698873 0.648833 0.687885 0.638583 0.648833 0.584712 0.638583 0.575482 0.687885 0.638583 0.677039 0.628444 0.638583 0.575482 0.628444 0.566387 0.584712 0.507938 0.575482 0.499944 0.507938 0.4202 0.499944 0.41359 0.575482 0.49