# vtk DataFile Version 3.0
#This file was generated by the deal.II library on 2018/12/4 at 0:47:15
ASCII
DATASET UNSTRUCTURED_GRID

POINTS 1552 double
0.625 0.875 0
0.75 0.875 0
0.625 1 0
0.75 1 0
0.25 0.625 0
0.375 0.625 0
0.25 0.75 0
0.375 0.75 0
0.125 0.75 0
0.25 0.75 0
0.125 0.875 0
0.25 0.875 0
0 0.875 0
0.125 0.875 0
0 1 0
0.125 1 0
0.125 0.875 0
0.25 0.875 0
0.125 1 0
0.25 1 0
0.625 0.625 0
0.75 0.625 0
0.625 0.75 0
0.75 0.75 0
0.75 0.75 0
0.875 0.75 0
0.75 0.875 0
0.875 0.875 0
0.75 0.875 0
0.875 0.875 0
0.75 1 0
0.875 1 0
0.875 0.875 0
1 0.875 0
0.875 1 0
1 1 0
0 0.125 0
0.0625 0.125 0
0 0.1875 0
0.0625 0.1875 0
0.0625 0.125 0
0.125 0.125 0
0.0625 0.1875 0
0.125 0.1875 0
0 0.1875 0
0.0625 0.1875 0
0 0.25 0
0.0625 0.25 0
0.0625 0.1875 0
0.125 0.1875 0
0.0625 0.25 0
0.125 0.25 0
0.25 0 0
0.3125 0 0
0.25 0.0625 0
0.3125 0.0625 0
0.3125 0 0
0.375 0 0
0.3125 0.0625 0
0.375 0.0625 0
0.25 0.0625 0
0.3125 0.0625 0
0.25 0.125 0
0.3125 0.125 0
0.3125 0.0625 0
0.375 0.0625 0
0.3125 0.125 0
0.375 0.125 0
0.375 0.25 0
0.4375 0.25 0
0.375 0.3125 0
0.4375 0.3125 0
0.4375 0.25 0
0.5 0.25 0
0.4375 0.3125 0
0.5 0.3125 0
0.375 0.3125 0
0.4375 0.3125 0
0.375 0.375 0
0.4375 0.375 0
0 0 0
0.0625 0 0
0 0.0625 0
0.0625 0.0625 0
0 0.0625 0
0.0625 0.0625 0
0 0.125 0
0.0625 0.125 0
0.625 0 0
0.6875 0 0
0.625 0.0625 0
0.6875 0.0625 0
0.6875 0 0
0.75 0 0
0.6875 0.0625 0
0.75 0.0625 0
0.625 0.0625 0
0.6875 0.0625 0
0.625 0.125 0
0.6875 0.125 0
0.6875 0.0625 0
0.75 0.0625 0
0.6875 0.125 0
0.75 0.125 0
0.875 0.125 0
0.9375 0.125 0
0.875 0.1875 0
0.9375 0.1875 0
0.9375 0.125 0
1 0.125 0
0.9375 0.1875 0
1 0.1875 0
0.875 0.1875 0
0.9375 0.1875 0
0.875 0.25 0
0.9375 0.25 0
0.9375 0.1875 0
1 0.1875 0
0.9375 0.25 0
1 0.25 0
0.5 0.25 0
0.5625 0.25 0
0.5 0.3125 0
0.5625 0.3125 0
0.5625 0.25 0
0.625 0.25 0
0.5625 0.3125 0
0.625 0.3125 0
0.5625 0.3125 0
0.625 0.3125 0
0.5625 0.375 0
0.625 0.375 0
0 0.25 0
0.0625 0.25 0
0 0.3125 0
0.0625 0.3125 0
0.0625 0.25 0
0.125 0.25 0
0.0625 0.3125 0
0.125 0.3125 0
0 0.3125 0
0.0625 0.3125 0
0 0.375 0
0.0625 0.375 0
0.125 0.25 0
0.1875 0.25 0
0.125 0.3125 0
0.1875 0.3125 0
0.1875 0.25 0
0.25 0.25 0
0.1875 0.3125 0
0.25 0.3125 0
0.25 0.125 0
0.3125 0.125 0
0.25 0.1875 0
0.3125 0.1875 0
0.3125 0.125 0
0.375 0.125 0
0.3125 0.1875 0
0.375 0.1875 0
0.25 0.1875 0
0.3125 0.1875 0
0.25 0.25 0
0.3125 0.25 0
0.3125 0.1875 0
0.375 0.1875 0
0.3125 0.25 0
0.375 0.25 0
0.375 0.1875 0
0.4375 0.1875 0
0.375 0.25 0
0.4375 0.25 0
0.75 0.25 0
0.8125 0.25 0
0.75 0.3125 0
0.8125 0.3125 0
0.8125 0.25 0
0.875 0.25 0
0.8125 0.3125 0
0.875 0.3125 0
0.875 0.25 0
0.9375 0.25 0
0.875 0.3125 0
0.9375 0.3125 0
0.9375 0.25 0
1 0.25 0
0.9375 0.3125 0
1 0.3125 0
0.9375 0.3125 0
1 0.3125 0
0.9375 0.375 0
1 0.375 0
0.25 0.25 0
0.3125 0.25 0
0.25 0.3125 0
0.3125 0.3125 0
0.3125 0.25 0
0.375 0.25 0
0.3125 0.3125 0
0.375 0.3125 0
0.25 0.3125 0
0.3125 0.3125 0
0.25 0.375 0
0.3125 0.375 0
0.3125 0.3125 0
0.375 0.3125 0
0.3125 0.375 0
0.375 0.375 0
0.625 0.125 0
0.6875 0.125 0
0.625 0.1875 0
0.6875 0.1875 0
0.6875 0.125 0
0.75 0.125 0
0.6875 0.1875 0
0.75 0.1875 0
0.625 0.1875 0
0.6875 0.1875 0
0.625 0.25 0
0.6875 0.25 0
0.6875 0.1875 0
0.75 0.1875 0
0.6875 0.25 0
0.75 0.25 0
0.9375 0 0
1 0 0
0.9375 0.0625 0
1 0.0625 0
0.9375 0.0625 0
1 0.0625 0
0.9375 0.125 0
1 0.125 0
0.625 0.25 0
0.6875 0.25 0
0.625 0.3125 0
0.6875 0.3125 0
0.6875 0.25 0
0.75 0.25 0
0.6875 0.3125 0
0.75 0.3125 0
0.625 0.3125 0
0.6875 0.3125 0
0.625 0.375 0
0.6875 0.375 0
0.6875 0.3125 0
0.75 0.3125 0
0.6875 0.375 0
0.75 0.375 0
0 0.625 0
0.0625 0.625 0
0 0.6875 0
0.0625 0.6875 0
0 0.6875 0
0.0625 0.6875 0
0 0.75 0
0.0625 0.75 0
0.9375 0.625 0
1 0.625 0
0.9375 0.6875 0
1 0.6875 0
0.9375 0.6875 0
1 0.6875 0
0.9375 0.75 0
1 0.75 0
0.25 0.375 0
0.3125 0.375 0
0.25 0.4375 0
0.3125 0.4375 0
0.3125 0.375 0
0.375 0.375 0
0.3125 0.4375 0
0.375 0.4375 0
0.25 0.4375 0
0.3125 0.4375 0
0.25 0.5 0
0.3125 0.5 0
0.3125 0.4375 0
0.375 0.4375 0
0.3125 0.5 0
0.375 0.5 0
0.3125 0.5 0
0.375 0.5 0
0.3125 0.5625 0
0.375 0.5625 0
0.25 0.5625 0
0.3125 0.5625 0
0.25 0.625 0
0.3125 0.625 0
0.3125 0.5625 0
0.375 0.5625 0
0.3125 0.625 0
0.375 0.625 0
0.375 0.5 0
0.4375 0.5 0
0.375 0.5625 0
0.4375 0.5625 0
0.375 0.5625 0
0.4375 0.5625 0
0.375 0.625 0
0.4375 0.625 0
0.4375 0.5625 0
0.5 0.5625 0
0.4375 0.625 0
0.5 0.625 0
0.375 0.375 0
0.4375 0.375 0
0.375 0.4375 0
0.4375 0.4375 0
0.4375 0.375 0
0.5 0.375 0
0.4375 0.4375 0
0.5 0.4375 0
0.375 0.4375 0
0.4375 0.4375 0
0.375 0.5 0
0.4375 0.5 0
0.4375 0.4375 0
0.5 0.4375 0
0.4375 0.5 0
0.5 0.5 0
0.375 0.625 0
0.4375 0.625 0
0.375 0.6875 0
0.4375 0.6875 0
0.4375 0.625 0
0.5 0.625 0
0.4375 0.6875 0
0.5 0.6875 0
0.375 0.6875 0
0.4375 0.6875 0
0.375 0.75 0
0.4375 0.75 0
0 0.75 0
0.0625 0.75 0
0 0.8125 0
0.0625 0.8125 0
0.0625 0.75 0
0.125 0.75 0
0.0625 0.8125 0
0.125 0.8125 0
0 0.8125 0
0.0625 0.8125 0
0 0.875 0
0.0625 0.875 0
0.0625 0.8125 0
0.125 0.8125 0
0.0625 0.875 0
0.125 0.875 0
0.5 0.375 0
0.5625 0.375 0
0.5 0.4375 0
0.5625 0.4375 0
0.5625 0.375 0
0.625 0.375 0
0.5625 0.4375 0
0.625 0.4375 0
0.5 0.4375 0
0.5625 0.4375 0
0.5 0.5 0
0.5625 0.5 0
0.5625 0.4375 0
0.625 0.4375 0
0.5625 0.5 0
0.625 0.5 0
0.625 0.375 0
0.6875 0.375 0
0.625 0.4375 0
0.6875 0.4375 0
0.6875 0.375 0
0.75 0.375 0
0.6875 0.4375 0
0.75 0.4375 0
0.625 0.4375 0
0.6875 0.4375 0
0.625 0.5 0
0.6875 0.5 0
0.6875 0.4375 0
0.75 0.4375 0
0.6875 0.5 0
0.75 0.5 0
0 0.375 0
0.0625 0.375 0
0 0.4375 0
0.0625 0.4375 0
0.0625 0.375 0
0.125 0.375 0
0.0625 0.4375 0
0.125 0.4375 0
0 0.4375 0
0.0625 0.4375 0
0 0.5 0
0.0625 0.5 0
0.0625 0.4375 0
0.125 0.4375 0
0.0625 0.5 0
0.125 0.5 0
0.5625 0.5 0
0.625 0.5 0
0.5625 0.5625 0
0.625 0.5625 0
0.5 0.5625 0
0.5625 0.5625 0
0.5 0.625 0
0.5625 0.625 0
0.5625 0.5625 0
0.625 0.5625 0
0.5625 0.625 0
0.625 0.625 0
0.625 0.5 0
0.6875 0.5 0
0.625 0.5625 0
0.6875 0.5625 0
0.625 0.5625 0
0.6875 0.5625 0
0.625 0.625 0
0.6875 0.625 0
0.6875 0.5625 0
0.75 0.5625 0
0.6875 0.625 0
0.75 0.625 0
0.5 0.625 0
0.5625 0.625 0
0.5 0.6875 0
0.5625 0.6875 0
0.5625 0.625 0
0.625 0.625 0
0.5625 0.6875 0
0.625 0.6875 0
0.5625 0.6875 0
0.625 0.6875 0
0.5625 0.75 0
0.625 0.75 0
0.125 0.375 0
0.1875 0.375 0
0.125 0.4375 0
0.1875 0.4375 0
0.1875 0.375 0
0.25 0.375 0
0.1875 0.4375 0
0.25 0.4375 0
0.125 0.4375 0
0.1875 0.4375 0
0.125 0.5 0
0.1875 0.5 0
0.1875 0.4375 0
0.25 0.4375 0
0.1875 0.5 0
0.25 0.5 0
0.75 0.375 0
0.8125 0.375 0
0.75 0.4375 0
0.8125 0.4375 0
0.8125 0.375 0
0.875 0.375 0
0.8125 0.4375 0
0.875 0.4375 0
0.75 0.4375 0
0.8125 0.4375 0
0.75 0.5 0
0.8125 0.5 0
0.8125 0.4375 0
0.875 0.4375 0
0.8125 0.5 0
0.875 0.5 0
0.875 0.75 0
0.9375 0.75 0
0.875 0.8125 0
0.9375 0.8125 0
0.9375 0.75 0
1 0.75 0
0.9375 0.8125 0
1 0.8125 0
0.875 0.8125 0
0.9375 0.8125 0
0.875 0.875 0
0.9375 0.875 0
0.9375 0.8125 0
1 0.8125 0
0.9375 0.875 0
1 0.875 0
0.875 0.375 0
0.9375 0.375 0
0.875 0.4375 0
0.9375 0.4375 0
0.9375 0.375 0
1 0.375 0
0.9375 0.4375 0
1 0.4375 0
0.875 0.4375 0
0.9375 0.4375 0
0.875 0.5 0
0.9375 0.5 0
0.9375 0.4375 0
1 0.4375 0
0.9375 0.5 0
1 0.5 0
0 0.5 0
0.0625 0.5 0
0 0.5625 0
0.0625 0.5625 0
0.0625 0.5 0
0.125 0.5 0
0.0625 0.5625 0
0.125 0.5625 0
0 0.5625 0
0.0625 0.5625 0
0 0.625 0
0.0625 0.625 0
0.0625 0.5625 0
0.125 0.5625 0
0.0625 0.625 0
0.125 0.625 0
0.125 0.5 0
0.1875 0.5 0
0.125 0.5625 0
0.1875 0.5625 0
0.1875 0.5 0
0.25 0.5 0
0.1875 0.5625 0
0.25 0.5625 0
0.125 0.5625 0
0.1875 0.5625 0
0.125 0.625 0
0.1875 0.625 0
0.1875 0.5625 0
0.25 0.5625 0
0.1875 0.625 0
0.25 0.625 0
0.125 0.625 0
0.1875 0.625 0
0.125 0.6875 0
0.1875 0.6875 0
0.1875 0.625 0
0.25 0.625 0
0.1875 0.6875 0
0.25 0.6875 0
0.125 0.6875 0
0.1875 0.6875 0
0.125 0.75 0
0.1875 0.75 0
0.1875 0.6875 0
0.25 0.6875 0
0.1875 0.75 0
0.25 0.75 0
0.25 0.75 0
0.3125 0.75 0
0.25 0.8125 0
0.3125 0.8125 0
0.3125 0.75 0
0.375 0.75 0
0.3125 0.8125 0
0.375 0.8125 0
0.25 0.8125 0
0.3125 0.8125 0
0.25 0.875 0
0.3125 0.875 0
0.3125 0.8125 0
0.375 0.8125 0
0.3125 0.875 0
0.375 0.875 0
0.375 0.75 0
0.4375 0.75 0
0.375 0.8125 0
0.4375 0.8125 0
0.4375 0.75 0
0.5 0.75 0
0.4375 0.8125 0
0.5 0.8125 0
0.375 0.8125 0
0.4375 0.8125 0
0.375 0.875 0
0.4375 0.875 0
0.4375 0.8125 0
0.5 0.8125 0
0.4375 0.875 0
0.5 0.875 0
0.25 0.875 0
0.3125 0.875 0
0.25 0.9375 0
0.3125 0.9375 0
0.3125 0.875 0
0.375 0.875 0
0.3125 0.9375 0
0.375 0.9375 0
0.25 0.9375 0
0.3125 0.9375 0
0.25 1 0
0.3125 1 0
0.3125 0.9375 0
0.375 0.9375 0
0.3125 1 0
0.375 1 0
0.375 0.875 0
0.4375 0.875 0
0.375 0.9375 0
0.4375 0.9375 0
0.4375 0.875 0
0.5 0.875 0
0.4375 0.9375 0
0.5 0.9375 0
0.375 0.9375 0
0.4375 0.9375 0
0.375 1 0
0.4375 1 0
0.4375 0.9375 0
0.5 0.9375 0
0.4375 1 0
0.5 1 0
0.75 0.5 0
0.8125 0.5 0
0.75 0.5625 0
0.8125 0.5625 0
0.8125 0.5 0
0.875 0.5 0
0.8125 0.5625 0
0.875 0.5625 0
0.75 0.5625 0
0.8125 0.5625 0
0.75 0.625 0
0.8125 0.625 0
0.8125 0.5625 0
0.875 0.5625 0
0.8125 0.625 0
0.875 0.625 0
0.875 0.5 0
0.9375 0.5 0
0.875 0.5625 0
0.9375 0.5625 0
0.9375 0.5 0
1 0.5 0
0.9375 0.5625 0
1 0.5625 0
0.875 0.5625 0
0.9375 0.5625 0
0.875 0.625 0
0.9375 0.625 0
0.9375 0.5625 0
1 0.5625 0
0.9375 0.625 0
1 0.625 0
0.75 0.625 0
0.8125 0.625 0
0.75 0.6875 0
0.8125 0.6875 0
0.8125 0.625 0
0.875 0.625 0
0.8125 0.6875 0
0.875 0.6875 0
0.75 0.6875 0
0.8125 0.6875 0
0.75 0.75 0
0.8125 0.75 0
0.8125 0.6875 0
0.875 0.6875 0
0.8125 0.75 0
0.875 0.75 0
0.5 0.75 0
0.5625 0.75 0
0.5 0.8125 0
0.5625 0.8125 0
0.5625 0.75 0
0.625 0.75 0
0.5625 0.8125 0
0.625 0.8125 0
0.5 0.8125 0
0.5625 0.8125 0
0.5 0.875 0
0.5625 0.875 0
0.5625 0.8125 0
0.625 0.8125 0
0.5625 0.875 0
0.625 0.875 0
0.625 0.75 0
0.6875 0.75 0
0.625 0.8125 0
0.6875 0.8125 0
0.6875 0.75 0
0.75 0.75 0
0.6875 0.8125 0
0.75 0.8125 0
0.625 0.8125 0
0.6875 0.8125 0
0.625 0.875 0
0.6875 0.875 0
0.6875 0.8125 0
0.75 0.8125 0
0.6875 0.875 0
0.75 0.875 0
0.5 0.875 0
0.5625 0.875 0
0.5 0.9375 0
0.5625 0.9375 0
0.5625 0.875 0
0.625 0.875 0
0.5625 0.9375 0
0.625 0.9375 0
0.5 0.9375 0
0.5625 0.9375 0
0.5 1 0
0.5625 1 0
0.5625 0.9375 0
0.625 0.9375 0
0.5625 1 0
0.625 1 0
0.4375 0.3125 0
0.46875 0.3125 0
0.4375 0.34375 0
0.46875 0.34375 0
[...]
POINT_DATA 1552
SCALARS U double 1
LOOKUP_TABLE default
-0.141023 0.252424 -0.129439 0.239172 0.308514 -0.185726 0.285527 -0.165736 0.380123 0.285527 0.338516 0.250039 0 0.338516 0 0.312493 0.338516 0.250039 0.312493 0.239172 -0.185699 0.308585 -0.16533 0.285693 0.285693 0.380396 0.252424 0.338646 0.252424 0.338646 0.239172 0.312493 0.338646 1.40813e-16 0.312493 1.24267e-16 0 0.438258 0 0.405791 0.438258 0.724811 0.405791 0.668365 0 0.405791 0 0.376782 0.405791 0.668365 0.376782 0.627055 0.650136 0.179372 0.594748 0.162937 0.179372 -0.351851 0.162937 -0.325762 0.594748 0.162937 0.549173 0.148101 0.162937 -0.325762 0.148101 -0.304201 -0.27479 -0.583579 -0.258847 -0.543212 -0.583579 -0.702009 -0.543212 -0.655977 -0.258847 -0.543212 -0.245185 -0.499205 0 0.510809 0 0.46742 0 0.46742 0 0.438258 -0.351851 0.179372 -0.325747 0.162873 0.179372 0.650136 0.162873 0.594777 -0.325747 0.162873 -0.305195 0.148455 0.162873 0.594777 0.148455 0.549193 0.724813 0.438258 0.668367 0.405791 0.438258 2.98102e-16 0.405791 2.80041e-16 0.668367 0.405791 0.627055 0.376782 0.405791 2.80041e-16 0.376782 2.63074e-16 -0.702009 -0.585323 -0.655977 -0.543263 -0.585323 -0.274637 -0.543263 -0.258954 -0.543263 -0.258954 -0.499218 -0.245196 0 0.376782 0 0.348512 0.376782 0.627055 0.348512 0.583454 0 0.348512 0 0.317291 0.627055 0.667614 0.583454 0.61548 0.667614 0.473833 0.61548 0.436548 0.549173 0.148101 0.506619 0.13449 0.148101 -0.304201 0.13449 -0.291614 0.506619 0.13449 0.473833 0.121133 0.13449 -0.291614 0.121133 -0.27479 -0.291614 -0.617356 -0.27479 -0.583579 0.473859 0.667621 0.436577 0.61548 0.667621 0.627055 0.61548 0.583452 0.627055 0.376782 0.583452 0.34851 0.376782 2.63074e-16 0.34851 2.47135e-16 0.34851 2.47135e-16 0.317288 2.32162e-16 0.473833 0.121133 0.436548 0.109496 0.121133 -0.27479 0.109496 -0.258847 0.436548 0.109496 0.406526 0.0973988 0.109496 -0.258847 0.0973988 -0.245185 -0.305195 0.148455 -0.286863 0.134609 0.148455 0.549193 0.134609 0.506688 -0.286863 0.134609 -0.274637 0.121517 0.134609 0.506688 0.121517 0.473859 0.510809 3.37794e-16 0.46742 3.17328e-16 0.46742 3.17328e-16 0.438258 2.98102e-16 -0.274637 0.121517 -0.258954 0.109516 0.121517 0.473859 0.109516 0.436577 -0.258954 0.109516 -0.245196 0.0973867 0.109516 0.436577 0.0973867 0.406522 0 0.242018 0 0.232702 0 0.232702 0 0.226607 0.242037 1.80808e-16 0.232757 1.69853e-16 0.232757 1.69853e-16 0.226687 1.59562e-16 0.406526 0.0973988 0.378304 0.0886 0.0973988 -0.245185 0.0886 -0.230421 0.378304 0.0886 0.351098 0.0824393 0.0886 -0.230421 0.0824393 -0.216045 0.0824393 -0.216045 0.0806766 -0.202632 0.327147 0.0806766 0.308514 0.061394 0.0806766 -0.202632 0.061394 -0.185726 -0.216045 -0.438477 -0.202632 -0.41912 -0.202632 -0.41912 -0.185726 -0.396697 -0.41912 -0.505696 -0.396697 -0.473699 -0.245185 -0.499205 -0.230421 -0.46732 -0.499205 -0.616932 -0.46732 -0.576036 -0.230421 -0.46732 -0.216045 -0.438477 -0.46732 -0.576036 -0.438477 -0.541577 -0.185726 -0.396697 -0.175731 -0.369003 -0.396697 -0.473699 -0.369003 -0.44468 -0.175731 -0.369003 -0.165736 -0.338367 0 0.226607 0 0.21135 0.226607 0.380123 0.21135 0.359319 0 0.21135 0 0.169258 0.21135 0.359319 0.169258 0.338516 -0.616932 -0.499218 -0.576036 -0.467326 -0.499218 -0.245196 -0.467326 -0.230431 -0.576036 -0.467326 -0.541577 -0.438481 -0.467326 -0.230431 -0.438481 -0.216054 -0.245196 0.0973867 -0.230431 0.0885886 0.0973867 0.406522 0.0885886 0.378292 -0.230431 0.0885886 -0.216054 0.0824281 0.0885886 0.378292 0.0824281 0.351086 0 0.317291 0 0.29411 0.317291 0.544421 0.29411 0.503932 0 0.29411 0 0.273013 0.29411 0.503932 0.273013 0.467524 -0.438481 -0.216054 -0.419118 -0.202628 -0.505696 -0.419118 -0.473699 -0.396664 -0.419118 -0.202628 -0.396664 -0.185699 -0.216054 0.0824281 -0.202628 0.0806797 -0.202628 0.0806797 -0.185699 0.0614429 0.0806797 0.327151 0.0614429 0.308585 -0.473699 -0.396664 -0.44468 -0.368909 -0.396664 -0.185699 -0.368909 -0.175514 -0.368909 -0.175514 -0.338183 -0.16533 0.544421 0.559524 0.503932 0.515523 0.559524 0.406526 0.515523 0.378304 0.503932 0.515523 0.467524 0.478594 0.515523 0.378304 0.478594 0.351098 0.406522 0.55952 0.378292 0.515513 0.55952 0.544416 0.515513 0.503924 0.378292 0.515513 0.351086 0.478584 0.515513 0.503924 0.478584 0.467517 0.380396 0.226687 0.359521 0.21144 0.226687 1.59562e-16 0.21144 1.49895e-16 0.359521 0.21144 0.338646 0.169323 0.21144 1.49895e-16 0.169323 1.40813e-16 0.544416 0.317288 0.503924 0.294106 0.317288 2.32162e-16 0.294106 2.18096e-16 0.503924 0.294106 0.467517 0.273009 0.294106 2.18096e-16 0.273009 2.04882e-16 0 0.273013 0 0.255395 0.273013 0.467524 0.255395 0.437174 0 0.255395 0 0.242018 0.255395 0.437174 0.242018 0.411244 0.467524 0.478594 0.437174 0.44699 0.478594 0.351098 0.44699 0.327147 0.437174 0.44699 0.411244 0.418663 0.44699 0.327147 0.418663 0.308514 0.411244 0.418663 0.381837 0.39482 0.418663 0.308514 0.39482 0.297021 0.381837 0.39482 0.380123 0.332825 0.39482 0.297021 0.332825 0.285527 0.285527 0.0598957 0.267783 0.0616795 0.0598957 -0.165736 0.0616795 -0.155569 0.267783 0.0616795 0.250039 0.0590817 0.0616795 -0.155569 0.0590817 -0.144313 -0.165736 -0.338367 -0.155569 -0.315307 -0.338367 -0.417972 -0.315307 -0.388792 -0.155569 -0.315307 -0.144313 -0.29458 -0.315307 -0.388792 -0.29458 -0.363248 0.250039 0.0590817 0.244605 0.0596545 0.0590817 -0.144313 0.0596545 -0.134812 0.244605 0.0596545 0.239172 0.0659873 0.0596545 -0.134812 0.0659873 -0.129439 -0.144313 -0.29458 -0.134812 -0.278055 -0.29458 -0.363248 -0.278055 -0.3447 -0.134812 -0.278055 -0.129439 -0.281236 -0.278055 -0.3447 -0.281236 -0.33824 0.351086 0.478584 0.327151 0.446997 0.478584 0.467517 0.446997 0.43718 0.327151 0.446997 0.308585 0.418705 0.446997 0.43718 0.418705 0.411279 0.467517 0.273009 0.43718 0.255398 0.273009 2.04882e-16 0.255398 1.92469e-16 0.43718 0.255398 0.411279 0.242037 0.255398 1.92469e-16 0.242037 1.80808e-16 0.308585 0.418705 0.297139 0.394951 0.418705 0.411279 0.394951 0.381933 0.297139 0.394951 0.285693 0.333045 0.394951 0.381933 0.333045 0.380396 -0.417972 -0.338183 -0.388792 -0.314772 -0.338183 -0.16533 -0.314772 -0.155198 -0.388792 -0.314772 -0.363248 -0.294161 -0.314772 -0.155198 -0.294161 -0.141023 -0.16533 0.0601818 -0.155198 0.0626091 0.0601818 0.285693 0.0626091 0.269059 -0.155198 0.0626091 -0.141023 0.0557007 0.0626091 0.269059 0.0557007 0.252424 -0.363248 -0.294161 -0.3447 -0.27763 -0.294161 -0.141023 -0.27763 -0.135231 -0.3447 -0.27763 -0.33824 -0.281236 -0.27763 -0.135231 -0.281236 -0.129439 -0.543212 -0.599595 -0.521209 -0.594721 -0.599595 -0.655977 -0.594721 -0.619837 -0.521209 -0.594721 -0.499205 -0.558069 -0.594721 -0.619837 -0.558069 -0.616932 0.510809 0.71073 0.489114 0.677493 0.71073 0.849444 0.677493 0.811128 0.489114 0.677493 0.46742 0.649718 0.677493 0.811128 0.649718 0.777294 0.46742 0.649718 0.452839 0.623822 0.649718 0.777294 0.623822 0.745699 0.452839 0.623822 0.438258 0.581534 0.623822 0.745699 0.581534 0.724811 0.849444 0.915004 0.811128 0.871827 0.915004 0.901765 0.871827 0.860832 0.811128 0.871827 0.777294 0.835516 0.871827 0.860832 0.835516 0.824816 0.901765 0.810866 0.860832 0.772568 0.810866 0.650136 0.772568 0.622442 0.860832 0.772568 0.824816 0.740329 0.772568 0.622442 0.740329 0.594748 0.777294 0.835516 0.745699 0.803493 0.835516 0.824816 0.803493 0.792441 0.745699 0.803493 0.724811 0.773454 0.803493 0.792441 0.773454 0.762252 0.824816 0.740329 0.792441 0.710938 0.740329 0.594748 0.710938 0.571961 0.792441 0.710938 0.762252 0.683627 0.710938 0.571961 0.683627 0.549173 -0.655977 -0.59962 -0.619837 -0.594735 -0.59962 -0.543263 -0.594735 -0.521241 -0.619837 -0.594735 -0.616932 -0.558075 -0.594735 -0.521241 -0.558075 -0.499218 0.724811 0.773454 0.696588 0.744889 0.773454 0.762252 0.744889 0.73367 0.696588 0.744889 0.668365 0.717033 0.744889 0.73367 0.717033 0.706194 0.762252 0.683627 0.73367 0.657546 0.683627 0.549173 0.657546 0.527896 0.73367 0.657546 0.706194 0.632762 0.657546 0.527896 0.632762 0.506619 0.668365 0.717033 0.64771 0.69085 0.717033 0.706194 0.69085 0.677857 0.64771 0.69085 0.627055 0.647334 0.69085 0.677857 0.647334 0.667614 0.706194 0.632762 0.677857 0.609418 0.632762 0.506619 0.609418 0.490226 0.677857 0.609418 0.667614 0.570723 0.609418 0.490226 0.570723 0.473833 -0.351851 -0.583281 -0.338806 -0.558031 -0.583281 -0.764479 -0.558031 -0.73223 -0.338806 -0.558031 -0.325762 -0.537076 -0.558031 -0.73223 -0.537076 -0.704067 -0.764479 -0.879841 -0.73223 -0.840784 -0.879841 -0.919431 -0.840784 -0.8803 -0.73223 -0.840784 -0.704067 -0.808376 -0.840784 -0.8803 -0.808376 -0.84613 -0.325762 -0.537076 -0.314981 -0.518113 -0.537076 -0.704067 -0.518113 -0.678956 -0.314981 -0.518113 -0.304201 -0.500857 -0.518113 -0.678956 -0.500857 -0.655663 -0.704067 -0.808376 -0.678956 -0.779308 -0.808376 -0.84613 -0.779308 -0.815667 -0.678956 -0.779308 -0.655663 -0.752411 -0.779308 -0.815667 -0.752411 -0.787568 0.348512 0.465983 0.332901 0.461613 0.465983 0.583454 0.461613 0.549407 0.332901 0.461613 0.317291 0.430856 0.461613 0.549407 0.430856 0.544421 0.583454 0.599467 0.549407 0.590504 0.599467 0.61548 0.590504 0.572495 0.549407 0.590504 0.544421 0.551973 0.590504 0.572495 0.551973 0.559524 0.61548 0.526014 0.572495 0.518337 0.526014 0.436548 0.518337 0.421537 0.572495 0.518337 0.559524 0.483025 0.518337 0.421537 0.483025 0.406526 -0.304201 -0.500857 -0.297907 -0.484213 -0.500857 -0.655663 -0.484213 -0.632968 -0.297907 -0.484213 -0.291614 -0.454485 -0.484213 -0.632968 -0.454485 -0.617356 -0.655663 -0.752411 -0.632968 -0.727857 -0.752411 -0.787568 -0.727857 -0.761349 -0.632968 -0.727857 -0.617356 -0.704653 -0.727857 -0.761349 -0.704653 -0.736489 -0.617356 -0.704653 -0.600468 -0.682722 -0.704653 -0.736489 -0.682722 -0.710599 -0.600468 -0.682722 -0.583579 -0.642794 -0.682722 -0.710599 -0.642794 -0.702009 0.436577 0.526029 0.421549 0.51834 0.526029 0.61548 0.51834 0.572494 0.421549 0.51834 0.406522 0.483021 0.51834 0.572494 0.483021 0.55952 0.61548 0.599466 0.572494 0.590501 0.599466 0.583452 0.590501 0.549404 0.572494 0.590501 0.55952 0.551968 0.590501 0.549404 0.551968 0.544416 0.583452 0.465981 0.549404 0.461611 0.465981 0.34851 0.461611 0.332899 0.549404 0.461611 0.544416 0.430852 0.461611 0.332899 0.430852 0.317288 -0.919431 -0.879841 -0.8803 -0.840795 -0.879841 -0.764479 -0.840795 -0.732252 -0.8803 -0.840795 -0.84613 -0.808402 -0.840795 -0.732252 -0.808402 -0.704124 -0.764479 -0.583281 -0.732252 -0.558047 -0.583281 -0.351851 -0.558047 -0.338799 -0.732252 -0.558047 -0.704124 -0.53717 -0.558047 -0.338799 -0.53717 -0.325747 -0.84613 -0.808402 -0.815667 -0.779364 -0.808402 -0.704124 -0.779364 -0.679059 -0.815667 -0.779364 -0.787568 -0.75255 -0.779364 -0.679059 -0.75255 -0.65588 -0.704124 -0.53717 -0.679059 -0.518337 -0.53717 -0.325747 -0.518337 -0.315471 -0.679059 -0.518337 -0.65588 -0.50105 -0.518337 -0.315471 -0.50105 -0.305195 -0.787568 -0.75255 -0.761349 -0.727473 -0.75255 -0.65588 -0.727473 -0.634206 -0.761349 -0.727473 -0.736489 -0.703363 -0.727473 -0.634206 -0.703363 -0.613597 -0.65588 -0.50105 -0.634206 -0.484815 -0.50105 -0.305195 -0.484815 -0.296029 -0.634206 -0.484815 -0.613597 -0.469515 -0.484815 -0.296029 -0.469515 -0.286863 -0.736489 -0.703363 -0.710599 -0.681653 -0.703363 -0.613597 -0.681653 -0.592147 -0.710599 -0.681653 -0.702009 -0.643666 -0.681653 -0.592147 -0.643666 -0.585323 -0.613597 -0.469515 -0.592147 -0.455289 -0.469515 -0.286863 -0.455289 -0.28075 -0.592147 -0.455289 -0.585323 -0.42998 -0.455289 -0.28075 -0.42998 -0.274637 0.650136 0.810866 0.622456 0.772575 0.810866 0.901765 0.772575 0.860834 0.622456 0.772575 0.594777 0.740339 0.772575 0.860834 0.740339 0.82482 0.901765 0.915004 0.860834 0.871828 0.915004 0.849444 0.871828 0.811129 0.860834 0.871828 0.82482 0.835518 0.871828 0.811129 0.835518 0.777295 0.594777 0.740339 0.571985 0.71095 0.740339 0.82482 0.71095 0.792447 0.571985 0.71095 0.549193 0.683642 0.71095 0.792447 0.683642 0.762259 0.82482 0.835518 0.792447 0.803496 0.835518 0.777295 0.803496 0.7457 0.792447 0.803496 0.762259 0.773458 0.803496 0.7457 0.773458 0.724813 0.849444 0.71073 0.811129 0.677493 0.71073 0.510809 0.677493 0.489114 0.811129 0.677493 0.777295 0.649718 0.677493 0.489114 0.649718 0.46742 0.777295 0.649718 0.7457 0.623823 0.649718 0.46742 0.623823 0.452839 0.7457 0.623823 0.724813 0.581535 0.623823 0.452839 0.581535 0.438258 0.549193 0.683642 0.52794 0.657567 0.683642 0.762259 0.657567 0.733679 0.52794 0.657567 0.506688 0.632785 0.657567 0.733679 0.632785 0.706204 0.762259 0.773458 0.733679 0.744893 0.773458 0.724813 0.744893 0.69659 0.733679 0.744893 0.706204 0.717037 0.744893 0.69659 0.717037 0.668367 0.506688 0.632785 0.490273 0.60944 0.632785 0.706204 0.60944 0.677867 0.490273 0.60944 0.473859 0.57074 0.60944 0.677867 0.57074 0.667621 0.706204 0.717037 0.677867 0.690854 0.717037 0.668367 0.690854 0.647711 0.677867 0.690854 0.667621 0.647338 0.690854 0.647711 0.647338 0.627055 0.242018 0.326631 0.23736 0.330383 0.326631 0.411244 0.330383 0.39654 0.23736 0.330383 0.232702 0.32487 0.330383 0.39654 0.32487 0.381837 0.232702 0.32487 0.229655 0.318223 0.32487 0.381837 0.318223 0.38098 0.229655 0.318223 0.226607 0.303365 0.318223 0.38098 0.303365 0.380123 0.411279 0.326658 0.396606 0.330434 0.326658 0.242037 0.330434 0.237397 0.396606 0.330434 0.381933 0.324953 0.330434 0.237397 0.324953 0.232757 0.381933 0.324953 0.381165 0.318346 0.324953 0.232757 0.318346 0.229722 0.381165 0.318346 0.380396 0.303542 0.318346 0.229722 0.303542 0.226687 0.351098 0.216769 0.339123 0.219048 0.216769 0.0824393 0.219048 0.0815579 0.339123 0.219048 0.327147 0.203912 0.219048 0.0815579 0.203912 0.0806766 -0.438477 -0.490027 -0.428798 -0.489297 -0.490027 -0.541577 -0.489297 -0.510014 -0.428798 -0.489297 -0.41912 -0.462408 -0.489297 -0.510014 -0.462408 -0.505696 -0.369003 -0.406842 -0.353685 -0.403356 -0.406842 -0.44468 -0.403356 -0.420244 -0.353685 -0.403356 -0.338367 -0.37817 -0.403356 -0.420244 -0.37817 -0.417972 -0.541577 -0.490029 -0.510014 -0.489298 -0.490029 -0.438481 -0.489298 -0.428799 -0.510014 -0.489298 -0.505696 -0.462407 -0.489298 -0.428799 -0.462407 -0.419118 0.0824281 0.216757 0.0815539 0.219043 0.216757 0.351086 0.219043 0.339119 0.0815539 0.219043 0.0806797 0.203915 0.219043 0.339119 0.203915 0.327151 -0.44468 -0.406795 -0.420244 -0.403288 -0.406795 -0.368909 -0.403288 -0.353546 -0.420244 -0.403288 -0.417972 -0.378077 -0.403288 -0.353546 -0.378077 -0.338183 
