# vtk DataFile Version 3.0
#This file was generated by the deal.II library on 2018/12/4 at 0:47:18
ASCII
DATASET UNSTRUCTURED_GRID

POINTS 81316 double
0.3125 0.15625 0
0.34375 0.15625 0
0.3125 0.1875 0
0.34375 0.1875 0
0.65625 0.15625 0
0.6875 0.15625 0
0.65625 0.1875 0
0.6875 0.1875 0
0.65625 0.1875 0
0.6875 0.1875 0
0.65625 0.21875 0
0.6875 0.21875 0
0.65625 0.21875 0
0.6875 0.21875 0
0.65625 0.25 0
0.6875 0.25 0
0.65625 0.25 0
0.6875 0.25 0
0.65625 0.28125 0
0.6875 0.28125 0
0.65625 0.28125 0
0.6875 0.28125 0
0.65625 0.3125 0
0.6875 0.3125 0
0 0.625 0
0.03125 0.625 0
0 0.65625 0
0.03125 0.65625 0
0 0.4375 0
0.03125 0.4375 0
0 0.46875 0
0.03125 0.46875 0
0 0.46875 0
0.03125 0.46875 0
0 0.5 0
0.03125 0.5 0
0.96875 0.4375 0
1 0.4375 0
0.96875 0.46875 0
1 0.46875 0
0.96875 0.46875 0
1 0.46875 0
0.96875 0.5 0
1 0.5 0
0.96875 0.59375 0
1 0.59375 0
0.96875 0.625 0
1 0.625 0
0.6875 0.875 0
0.71875 0.875 0
0.6875 0.90625 0
0.71875 0.90625 0
0.6875 0.90625 0
0.71875 0.90625 0
0.6875 0.9375 0
0.71875 0.9375 0
0.3125 0.1875 0
0.34375 0.1875 0
0.3125 0.21875 0
0.34375 0.21875 0
0.3125 0.21875 0
0.34375 0.21875 0
0.3125 0.25 0
0.34375 0.25 0
0.3125 0.25 0
0.34375 0.25 0
0.3125 0.28125 0
0.34375 0.28125 0
0.3125 0.28125 0
0.34375 0.28125 0
0.3125 0.3125 0
0.34375 0.3125 0
0.3125 0.3125 0
0.34375 0.3125 0
0.3125 0.34375 0
0.34375 0.34375 0
0.65625 0.3125 0
0.6875 0.3125 0
0.65625 0.34375 0
0.6875 0.34375 0
0.3125 0.5 0
0.34375 0.5 0
0.3125 0.53125 0
0.34375 0.53125 0
0.3125 0.5625 0
0.34375 0.5625 0
0.3125 0.59375 0
0.34375 0.59375 0
0.3125 0.59375 0
0.34375 0.59375 0
0.3125 0.625 0
0.34375 0.625 0
0.34375 0.59375 0
0.375 0.59375 0
0.34375 0.625 0
0.375 0.625 0
0 0.375 0
0.03125 0.375 0
0 0.40625 0
0.03125 0.40625 0
0 0.40625 0
0.03125 0.40625 0
0 0.4375 0
0.03125 0.4375 0
0.65625 0.5 0
0.6875 0.5 0
0.65625 0.53125 0
0.6875 0.53125 0
0.65625 0.5625 0
0.6875 0.5625 0
0.65625 0.59375 0
0.6875 0.59375 0
0.625 0.59375 0
0.65625 0.59375 0
0.625 0.625 0
0.65625 0.625 0
0.65625 0.59375 0
0.6875 0.59375 0
0.65625 0.625 0
0.6875 0.625 0
0.96875 0.375 0
1 0.375 0
0.96875 0.40625 0
1 0.40625 0
0.96875 0.40625 0
1 0.40625 0
0.96875 0.4375 0
1 0.4375 0
0 0.5 0
0.03125 0.5 0
0 0.53125 0
0.03125 0.53125 0
0 0.53125 0
0.03125 0.53125 0
0 0.5625 0
0.03125 0.5625 0
0.34375 0.75 0
0.375 0.75 0
0.34375 0.78125 0
0.375 0.78125 0
0.34375 0.78125 0
0.375 0.78125 0
0.34375 0.8125 0
0.375 0.8125 0
0.3125 0.8125 0
0.34375 0.8125 0
0.3125 0.84375 0
0.34375 0.84375 0
0.34375 0.8125 0
0.375 0.8125 0
0.34375 0.84375 0
0.375 0.84375 0
0.3125 0.84375 0
0.34375 0.84375 0
0.3125 0.875 0
0.34375 0.875 0
0.34375 0.84375 0
0.375 0.84375 0
0.34375 0.875 0
0.375 0.875 0
0.28125 0.875 0
0.3125 0.875 0
0.28125 0.90625 0
0.3125 0.90625 0
0.28125 0.90625 0
0.3125 0.90625 0
0.28125 0.9375 0
0.3125 0.9375 0
0.3125 0.875 0
0.34375 0.875 0
0.3125 0.90625 0
0.34375 0.90625 0
0.34375 0.875 0
0.375 0.875 0
0.34375 0.90625 0
0.375 0.90625 0
0.3125 0.90625 0
0.34375 0.90625 0
0.3125 0.9375 0
0.34375 0.9375 0
0.34375 0.90625 0
0.375 0.90625 0
0.34375 0.9375 0
0.375 0.9375 0
0.28125 0.9375 0
0.3125 0.9375 0
0.28125 0.96875 0
0.3125 0.96875 0
0.28125 0.96875 0
0.3125 0.96875 0
0.28125 1 0
0.3125 1 0
0.3125 0.9375 0
0.34375 0.9375 0
0.3125 0.96875 0
0.34375 0.96875 0
0.3125 0.96875 0
0.34375 0.96875 0
0.3125 1 0
0.34375 1 0
0.96875 0.5 0
1 0.5 0
0.96875 0.53125 0
1 0.53125 0
0.96875 0.53125 0
1 0.53125 0
0.96875 0.5625 0
1 0.5625 0
0.625 0.75 0
0.65625 0.75 0
0.625 0.78125 0
0.65625 0.78125 0
0.625 0.78125 0
0.65625 0.78125 0
0.625 0.8125 0
0.65625 0.8125 0
0.625 0.8125 0
0.65625 0.8125 0
0.625 0.84375 0
0.65625 0.84375 0
0.65625 0.8125 0
0.6875 0.8125 0
0.65625 0.84375 0
0.6875 0.84375 0
0.625 0.84375 0
0.65625 0.84375 0
0.625 0.875 0
0.65625 0.875 0
0.65625 0.84375 0
0.6875 0.84375 0
0.65625 0.875 0
0.6875 0.875 0
0.625 0.875 0
0.65625 0.875 0
0.625 0.90625 0
0.65625 0.90625 0
0.65625 0.875 0
0.6875 0.875 0
0.65625 0.90625 0
0.6875 0.90625 0
0.625 0.90625 0
0.65625 0.90625 0
0.625 0.9375 0
0.65625 0.9375 0
0.65625 0.90625 0
0.6875 0.90625 0
0.65625 0.9375 0
0.6875 0.9375 0
0.3125 0.625 0
0.34375 0.625 0
0.3125 0.65625 0
0.34375 0.65625 0
0.34375 0.625 0
0.375 0.625 0
0.34375 0.65625 0
0.375 0.65625 0
0.3125 0.65625 0
0.34375 0.65625 0
0.3125 0.6875 0
0.34375 0.6875 0
0.34375 0.65625 0
0.375 0.65625 0
0.34375 0.6875 0
0.375 0.6875 0
0.3125 0.6875 0
0.34375 0.6875 0
0.3125 0.71875 0
0.34375 0.71875 0
0.34375 0.6875 0
0.375 0.6875 0
0.34375 0.71875 0
0.375 0.71875 0
0.3125 0.71875 0
0.34375 0.71875 0
0.3125 0.75 0
0.34375 0.75 0
0.34375 0.71875 0
0.375 0.71875 0
0.34375 0.75 0
0.375 0.75 0
0.625 0.625 0
0.65625 0.625 0
0.625 0.65625 0
0.65625 0.65625 0
0.65625 0.625 0
0.6875 0.625 0
0.65625 0.65625 0
0.6875 0.65625 0
0.625 0.65625 0
0.65625 0.65625 0
0.625 0.6875 0
0.65625 0.6875 0
0.65625 0.65625 0
0.6875 0.65625 0
0.65625 0.6875 0
0.6875 0.6875 0
0.625 0.6875 0
0.65625 0.6875 0
0.625 0.71875 0
0.65625 0.71875 0
0.65625 0.6875 0
0.6875 0.6875 0
0.65625 0.71875 0
0.6875 0.71875 0
0.625 0.71875 0
0.65625 0.71875 0
0.625 0.75 0
0.65625 0.75 0
0.65625 0.71875 0
0.6875 0.71875 0
0.65625 0.75 0
0.6875 0.75 0
0.65625 0.9375 0
0.6875 0.9375 0
0.65625 0.96875 0
0.6875 0.96875 0
0.65625 0.96875 0
0.6875 0.96875 0
0.65625 1 0
0.6875 1 0
0.6875 0.9375 0
0.71875 0.9375 0
0.6875 0.96875 0
0.71875 0.96875 0
0.6875 0.96875 0
0.71875 0.96875 0
0.6875 1 0
0.71875 1 0
0 0.125 0
0.015625 0.125 0
0 0.140625 0
0.015625 0.140625 0
0.015625 0.125 0
0.03125 0.125 0
0.015625 0.140625 0
0.03125 0.140625 0
0 0.140625 0
0.015625 0.140625 0
0 0.15625 0
0.015625 0.15625 0
0.015625 0.140625 0
0.03125 0.140625 0
0.015625 0.15625 0
0.03125 0.15625 0
0.296875 0.046875 0
0.3125 0.046875 0
0.296875 0.0625 0
0.3125 0.0625 0
0.6875 0.046875 0
0.703125 0.046875 0
0.6875 0.0625 0
0.703125 0.0625 0
0.296875 0.65625 0
0.3125 0.65625 0
0.296875 0.671875 0
0.3125 0.671875 0
0.296875 0.671875 0
0.3125 0.671875 0
0.296875 0.6875 0
0.3125 0.6875 0
0.875 0.484375 0
0.890625 0.484375 0
0.875 0.5 0
0.890625 0.5 0
0.296875 0.6875 0
0.3125 0.6875 0
0.296875 0.703125 0
0.3125 0.703125 0
0.296875 0.703125 0
0.3125 0.703125 0
0.296875 0.71875 0
0.3125 0.71875 0
0.6875 0.65625 0
0.703125 0.65625 0
0.6875 0.671875 0
0.703125 0.671875 0
0.6875 0.671875 0
0.703125 0.671875 0
0.6875 0.6875 0
0.703125 0.6875 0
0.6875 0.6875 0
0.703125 0.6875 0
0.6875 0.703125 0
0.703125 0.703125 0
0.6875 0.703125 0
0.703125 0.703125 0
0.6875 0.71875 0
0.703125 0.71875 0
0 0.15625 0
0.015625 0.15625 0
0 0.171875 0
0.015625 0.171875 0
0.015625 0.15625 0
0.03125 0.15625 0
0.015625 0.171875 0
0.03125 0.171875 0
0 0.171875 0
0.015625 0.171875 0
0 0.1875 0
0.015625 0.1875 0
0.015625 0.171875 0
0.03125 0.171875 0
0.015625 0.1875 0
0.03125 0.1875 0
0.3125 0.53125 0
0.328125 0.53125 0
0.3125 0.546875 0
0.328125 0.546875 0
0.328125 0.53125 0
0.34375 0.53125 0
0.328125 0.546875 0
0.34375 0.546875 0
0.3125 0.546875 0
0.328125 0.546875 0
0.3125 0.5625 0
0.328125 0.5625 0
0.328125 0.546875 0
0.34375 0.546875 0
0.328125 0.5625 0
0.34375 0.5625 0
0.03125 0.3125 0
0.046875 0.3125 0
0.03125 0.328125 0
0.046875 0.328125 0
0.046875 0.3125 0
0.0625 0.3125 0
0.046875 0.328125 0
0.0625 0.328125 0
0.375 0.484375 0
0.390625 0.484375 0
0.375 0.5 0
0.390625 0.5 0
0.125 0.71875 0
0.140625 0.71875 0
0.125 0.734375 0
0.140625 0.734375 0
0.9375 0.3125 0
0.953125 0.3125 0
0.9375 0.328125 0
0.953125 0.328125 0
0.953125 0.3125 0
0.96875 0.3125 0
0.953125 0.328125 0
0.96875 0.328125 0
0.859375 0.71875 0
0.875 0.71875 0
0.859375 0.734375 0
0.875 0.734375 0
0.078125 0.6875 0
0.09375 0.6875 0
0.078125 0.703125 0
0.09375 0.703125 0
0.90625 0.6875 0
0.921875 0.6875 0
0.90625 0.703125 0
0.921875 0.703125 0
0.609375 0.484375 0
0.625 0.484375 0
0.609375 0.5 0
0.625 0.5 0
0.03125 0.28125 0
0.046875 0.28125 0
0.03125 0.296875 0
0.046875 0.296875 0
0.046875 0.28125 0
0.0625 0.28125 0
0.046875 0.296875 0
0.0625 0.296875 0
0.03125 0.296875 0
0.046875 0.296875 0
0.03125 0.3125 0
0.046875 0.3125 0
0.046875 0.296875 0
0.0625 0.296875 0
0.046875 0.3125 0
0.0625 0.3125 0
0.9375 0.28125 0
0.953125 0.28125 0
0.9375 0.296875 0
0.953125 0.296875 0
0.953125 0.28125 0
0.96875 0.28125 0
0.953125 0.296875 0
0.96875 0.296875 0
0.9375 0.296875 0
0.953125 0.296875 0
0.9375 0.3125 0
0.953125 0.3125 0
0.953125 0.296875 0
0.96875 0.296875 0
0.953125 0.3125 0
0.96875 0.3125 0
0.25 0.453125 0
0.265625 0.453125 0
0.25 0.46875 0
0.265625 0.46875 0
0.25 0.46875 0
0.265625 0.46875 0
0.25 0.484375 0
0.265625 0.484375 0
0.25 0.484375 0
0.265625 0.484375 0
0.25 0.5 0
0.265625 0.5 0
0.34375 0.15625 0
0.359375 0.15625 0
0.34375 0.171875 0
0.359375 0.171875 0
0.359375 0.15625 0
0.375 0.15625 0
0.359375 0.171875 0
0.375 0.171875 0
0.34375 0.171875 0
0.359375 0.171875 0
0.34375 0.1875 0
0.359375 0.1875 0
0.359375 0.171875 0
0.375 0.171875 0
0.359375 0.1875 0
0.375 0.1875 0
0.421875 0.640625 0
0.4375 0.640625 0
0.421875 0.65625 0
0.4375 0.65625 0
0.421875 0.65625 0
0.4375 0.65625 0
0.421875 0.671875 0
0.4375 0.671875 0
0.421875 0.671875 0
0.4375 0.671875 0
0.421875 0.6875 0
0.4375 0.6875 0
0.421875 0.6875 0
0.4375 0.6875 0
0.421875 0.703125 0
0.4375 0.703125 0
0.421875 0.703125 0
0.4375 0.703125 0
0.421875 0.71875 0
0.4375 0.71875 0
0.109375 0.75 0
0.125 0.75 0
0.109375 0.765625 0
0.125 0.765625 0
0.109375 0.765625 0
0.125 0.765625 0
0.109375 0.78125 0
0.125 0.78125 0
0.109375 0.78125 0
0.125 0.78125 0
0.109375 0.796875 0
0.125 0.796875 0
0.109375 0.796875 0
0.125 0.796875 0
0.109375 0.8125 0
0.125 0.8125 0
0.109375 0.859375 0
0.125 0.859375 0
0.109375 0.875 0
0.125 0.875 0
0.734375 0.453125 0
0.75 0.453125 0
0.734375 0.46875 0
0.75 0.46875 0
0.734375 0.46875 0
0.75 0.46875 0
0.734375 0.484375 0
0.75 0.484375 0
0.734375 0.484375 0
0.75 0.484375 0
0.734375 0.5 0
0.75 0.5 0
0.5625 0.640625 0
0.578125 0.640625 0
0.5625 0.65625 0
0.578125 0.65625 0
0.5625 0.65625 0
0.578125 0.65625 0
0.5625 0.671875 0
0.578125 0.671875 0
0.5625 0.671875 0
0.578125 0.671875 0
0.5625 0.6875 0
0.578125 0.6875 0
0.5625 0.6875 0
0.578125 0.6875 0
[...]
POINT_DATA 81316
SCALARS U double 1
LOOKUP_TABLE default
0.128478 -0.06717 0.1241 -0.0655141 -0.0671662 0.128481 -0.0655097 0.124104 -0.0655097 0.124104 -0.063859 0.119914 -0.063859 0.119914 -0.0622454 0.115876 -0.0622454 0.115876 -0.0606682 0.111978 -0.0606682 0.111978 -0.0591333 0.10822 0 0.120799 0 0.117089 0 0.145652 0 0.141126 0 0.141126 0 0.136773 0.145657 1.85107e-16 0.141132 1.79412e-16 0.141132 1.79412e-16 0.136771 1.73892e-16 0.124574 1.58331e-16 0.120768 1.53459e-16 0.062081 0.152035 0.0604226 0.147556 0.0604226 0.147556 0.0588805 0.143329 0.1241 -0.0655141 0.119908 -0.0638671 0.119908 -0.0638671 0.115869 -0.0622585 0.115869 -0.0622585 0.111974 -0.0606783 0.111974 -0.0606783 0.108218 -0.0591141 0.108218 -0.0591141 0.104626 -0.0576069 -0.0591333 0.10822 -0.0576098 0.104629 0.0885506 -0.0502173 0.085712 -0.0487715 0.082985 -0.0472793 0.080406 -0.0460788 0.080406 -0.0460788 0.0779068 -0.0446003 -0.0460788 -0.168835 -0.0446003 -0.163512 0 0.155236 0 0.150313 0 0.150313 0 0.145652 -0.0502169 0.0885555 -0.0487642 0.0857183 -0.0472626 0.0829896 -0.0460823 0.0804074 -0.168844 -0.0460823 -0.163515 -0.0446033 -0.0460823 0.0804074 -0.0446033 0.0779044 0.155239 1.97046e-16 0.150317 1.90983e-16 0.150317 1.90983e-16 0.145657 1.85107e-16 0 0.136773 0 0.132599 0 0.132599 0 0.128599 -0.0389091 -0.143855 -0.03757 -0.139243 -0.03757 -0.139243 -0.0361443 -0.134722 0.06536 -0.0361443 0.0635209 -0.034753 -0.0361443 -0.134722 -0.034753 -0.130296 0.0635209 -0.034753 0.0620767 -0.0333805 -0.034753 -0.130296 -0.0333805 -0.125987 0.152033 0.0620767 0.147531 0.0604139 0.147531 0.0604139 0.143301 0.0588719 0.0620767 -0.0333805 0.0604139 -0.032038 -0.0333805 -0.125987 -0.032038 -0.121804 0.0604139 -0.032038 0.0588719 -0.0307567 -0.032038 -0.121804 -0.0307567 -0.117826 0.143301 0.0588719 0.139236 0.0574088 0.139236 0.0574088 0.135328 0.0560062 0.0588719 -0.0307567 0.0574088 -0.0293242 0.0574088 -0.0293242 0.0560062 -0.0281386 0.136771 1.73892e-16 0.13257 1.68542e-16 0.13257 1.68542e-16 0.128511 1.63356e-16 -0.143856 -0.0389113 -0.139244 -0.0375716 -0.139244 -0.0375716 -0.134723 -0.0361452 -0.134723 -0.0361452 -0.130297 -0.034753 -0.0361452 0.0653584 -0.034753 0.0635206 -0.130297 -0.034753 -0.12599 -0.0333799 -0.034753 0.0635206 -0.0333799 0.062081 -0.12599 -0.0333799 -0.121813 -0.0320357 -0.0333799 0.062081 -0.0320357 0.0604226 -0.121813 -0.0320357 -0.117821 -0.0307547 -0.0320357 0.0604226 -0.0307547 0.0588805 0.0779068 -0.0446003 0.0755525 -0.0431593 -0.0446003 -0.163512 -0.0431593 -0.158416 0.0755525 -0.0431593 0.0733015 -0.0417334 -0.0431593 -0.158416 -0.0417334 -0.153437 0.0733015 -0.0417334 0.0711975 -0.0403164 -0.0417334 -0.153437 -0.0403164 -0.148576 0.0711975 -0.0403164 0.0691749 -0.0389091 -0.0403164 -0.148576 -0.0389091 -0.143855 -0.163515 -0.0446033 -0.158418 -0.0431622 -0.0446033 0.0779044 -0.0431622 0.0755493 -0.158418 -0.0431622 -0.15344 -0.0417364 -0.0431622 0.0755493 -0.0417364 0.0732981 -0.15344 -0.0417364 -0.148578 -0.0403191 -0.0417364 0.0732981 -0.0403191 0.0711943 -0.148578 -0.0403191 -0.143856 -0.0389113 -0.0403191 0.0711943 -0.0389113 0.0691721 -0.0307547 0.0588805 -0.0293225 0.0574136 -0.0293225 0.0574136 -0.0281386 0.0560062 0.0588805 0.143329 0.0574136 0.139237 0.0574136 0.139237 0.0560062 0.135328 0 0.10089 0 0.0993071 0.10089 0.199602 0.0993071 0.196472 0 0.0993071 0 0.0977459 0.0993071 0.196472 0.0977459 0.193386 0.250337 0.144738 0.246159 0.142295 0.14474 0.250339 0.142298 0.246161 0.133052 0.0755525 0.130932 0.074427 0.130932 0.074427 0.128975 0.0733015 0.442131 0.410565 0.43525 0.404173 0.128975 0.0733015 0.127013 0.0722495 0.127013 0.0722495 0.125206 0.0711975 0.0755493 0.133049 0.0744237 0.130929 0.0744237 0.130929 0.0732981 0.128972 0.0732981 0.128972 0.0722462 0.12701 0.0722462 0.12701 0.0711943 0.125203 0 0.0977459 0 0.0962244 0.0977459 0.193386 0.0962244 0.190314 0 0.0962244 0 0.0947296 0.0962244 0.190314 0.0947296 0.187451 0.085712 0.0184703 0.0842548 0.0183082 0.0184703 -0.0487715 0.0183082 -0.0481236 0.0842548 0.0183082 0.082985 0.0178529 0.0183082 -0.0481236 0.0178529 -0.0472793 0.165225 0.243351 0.162643 0.239565 0.243351 0.316181 0.239565 0.311246 -0.187948 -0.251024 -0.185065 -0.247298 0.349689 0.367067 0.344277 0.361417 0.316185 0.243354 0.31125 0.239568 0.243354 0.165227 0.239568 0.162645 0.367066 0.349689 0.361415 0.344276 0.262301 0.301873 0.258197 0.297189 0.301876 0.262304 0.297191 0.2582 -0.251021 -0.187946 -0.247297 -0.185066 0.170513 0.251237 0.167858 0.247228 0.251237 0.326351 0.247228 0.321215 0.167858 0.247228 0.165225 0.243351 0.247228 0.321215 0.243351 0.316181 0.326354 0.25124 0.321218 0.24723 0.25124 0.170514 0.24723 0.16786 0.321218 0.24723 0.316185 0.243354 0.24723 0.16786 0.243354 0.165227 0.347306 0.291962 0.341779 0.287294 0.341779 0.287294 0.33641 0.282769 0.33641 0.282769 0.331192 0.278382 -0.06717 -0.164039 -0.0663421 -0.161617 -0.164039 -0.257245 -0.161617 -0.25341 -0.0663421 -0.161617 -0.0655141 -0.159291 -0.161617 -0.25341 -0.159291 -0.24966 -0.308352 -0.345554 -0.30346 -0.340084 -0.30346 -0.340084 -0.298691 -0.334745 -0.298691 -0.334745 -0.293996 -0.329492 -0.293996 -0.329492 -0.289374 -0.32432 -0.289374 -0.32432 -0.284859 -0.319268 0.314802 0.338958 0.309882 0.333701 0.309882 0.333701 0.305114 0.328574 0.305114 0.328574 0.300439 0.323544 0.300439 0.323544 0.295897 0.318651 0.282558 0.304295 0.278253 0.299663 0.291965 0.347308 0.287297 0.341782 0.287297 0.341782 0.282773 0.336414 0.282773 0.336414 0.278387 0.331197 -0.345555 -0.308353 -0.340085 -0.303461 -0.340085 -0.303461 -0.334746 -0.298692 -0.334746 -0.298692 -0.329493 -0.293998 -0.329493 -0.293998 -0.324321 -0.289375 -0.324321 -0.289375 -0.319269 -0.28486 0.338956 0.314801 0.3337 0.309881 0.3337 0.309881 0.328573 0.305113 0.328573 0.305113 0.323542 0.300438 0.323542 0.300438 0.31865 0.295895 0.304295 0.282558 0.299664 0.278254 0.3165 0.364259 0.31155 0.358578 -0.257241 -0.164035 -0.253408 -0.161614 -0.164035 -0.0671662 -0.161614 -0.0663379 -0.253408 -0.161614 -0.249658 -0.159287 -0.161614 -0.0663379 -0.159287 -0.0655097 -0.249658 -0.159287 -0.24597 -0.157001 -0.159287 -0.0655097 -0.157001 -0.0646843 -0.24597 -0.157001 -0.242336 -0.154749 -0.157001 -0.0646843 -0.154749 -0.063859 -0.242336 -0.154749 -0.238756 -0.152527 -0.154749 -0.063859 -0.152527 -0.0630522 -0.238756 -0.152527 -0.235227 -0.150337 -0.152527 -0.0630522 -0.150337 -0.0622454 -0.235227 -0.150337 -0.231748 -0.148176 -0.150337 -0.0622454 -0.148176 -0.0614568 -0.231748 -0.148176 -0.228317 -0.146043 -0.148176 -0.0614568 -0.146043 -0.0606682 -0.355586 -0.367615 -0.34994 -0.361775 -0.367615 -0.37162 -0.361775 -0.365718 0.230925 0.17775 0.227323 0.174992 0.17775 0.120768 0.174992 0.118746 0.227323 0.174992 0.223784 0.172185 0.219387 0.155677 0.215897 0.153203 0.155677 0.0885506 0.153203 0.0871313 0.215897 0.153203 0.212488 0.150766 0.153203 0.0871313 0.150766 0.085712 0.212488 0.150766 0.209155 0.148425 0.150766 0.085712 0.148425 0.0842548 0.141126 0.207909 0.138949 0.204506 0.138949 0.204506 0.136773 0.201491 -0.37162 -0.367616 -0.365718 -0.361775 -0.367616 -0.355586 -0.361775 -0.34994 0.0885555 0.155682 0.0871369 0.153209 0.155682 0.219392 0.153209 0.215902 0.0871369 0.153209 0.0857183 0.150771 0.153209 0.215902 0.150771 0.212493 0.0857183 0.150771 0.0842612 0.14843 0.150771 0.212493 0.14843 0.209158 0.20792 0.141132 0.204515 0.138951 0.204515 0.138951 0.201496 0.136771 0.24204 0.186317 0.23827 0.183387 0.186317 0.12628 0.183387 0.124574 0.23827 0.183387 0.234568 0.180567 0.183387 0.124574 0.180567 0.122671 0.234568 0.180567 0.230925 0.17775 0.180567 0.122671 0.17775 0.120768 -0.223472 -0.191473 -0.219824 -0.188304 -0.191473 -0.155223 -0.188304 -0.15268 -0.219824 -0.188304 -0.216238 -0.185122 -0.216238 -0.185122 -0.212711 -0.182121 0.152241 0.0382904 0.149668 0.0374913 0.0382904 -0.0764887 0.0374913 -0.07551 0.149668 0.0374913 0.147112 0.0367319 0.0374913 -0.07551 0.0367319 -0.0745252 0.241616 0.190512 0.237888 0.187555 0.13719 0.0779068 0.135075 0.0767297 0.190512 0.135075 0.187555 0.133052 0.135075 0.0767297 0.133052 0.0755525 0.237888 0.187555 0.234234 0.18459 0.234234 0.18459 0.230642 0.1818 -0.0764887 -0.189612 -0.07551 -0.186883 -0.189612 -0.298631 -0.186883 -0.294199 -0.07551 -0.186883 -0.0745252 -0.184246 -0.186883 -0.294199 -0.184246 -0.289869 0.230642 0.1818 0.227133 0.179018 0.227133 0.179018 0.22368 0.176395 0.147112 0.0367319 0.144738 0.0359902 0.0367319 -0.0745252 0.0359902 -0.0734776 0.144738 0.0359902 0.142295 0.0352622 0.0359902 -0.0734776 0.0352622 -0.0725442 0.22368 0.176395 0.22024 0.173739 0.22024 0.173739 0.216997 0.171036 0.176395 0.125206 0.173739 0.123341 0.125206 0.0711975 0.123341 0.0701862 0.123341 0.0701862 0.121416 0.0691749 -0.0655141 -0.159291 -0.0646906 -0.157008 -0.159291 -0.24966 -0.157008 -0.245976 -0.0646906 -0.157008 -0.0638671 -0.154759 -0.157008 -0.245976 -0.154759 -0.242348 -0.0638671 -0.154759 -0.0630628 -0.152541 -0.154759 -0.242348 -0.152541 -0.238773 -0.0630628 -0.152541 -0.0622585 -0.150354 -0.152541 -0.238773 -0.150354 -0.235249 0.0779044 0.137188 0.0767269 0.135072 0.0767269 0.135072 0.0755493 0.133049 0.135072 0.190508 0.133049 0.187551 0.190508 0.241612 0.187551 0.237884 0.246159 0.142295 0.242295 0.139899 0.339411 0.242295 0.333876 0.238307 0.242295 0.139899 0.238307 0.137544 0.187551 0.237884 0.184587 0.23423 0.184587 0.23423 0.181796 0.230638 0.333876 0.238307 0.328494 0.234397 0.238307 0.137544 0.234397 0.135205 0.328494 0.234397 0.323198 0.230556 0.234397 0.135205 0.230556 0.132898 0.181796 0.230638 0.179014 0.227129 0.179014 0.227129 0.176392 0.223676 0.0711943 0.125203 0.0701832 0.123337 0.125203 0.176392 0.123337 0.173736 0.0701832 0.123337 0.0691721 0.121413 0.176392 0.223676 0.173736 0.220237 0.173736 0.220237 0.171033 0.216994 -0.0622585 -0.150354 -0.0614684 -0.148197 -0.150354 -0.235249 -0.148197 -0.231775 -0.0614684 -0.148197 -0.0606783 -0.146073 -0.148197 -0.231775 -0.146073 -0.228352 -0.0606783 -0.146073 -0.0598962 -0.143982 -0.146073 -0.228352 -0.143982 -0.225013 -0.0598962 -0.143982 -0.0591141 -0.14178 -0.0561758 -0.133971 -0.0554234 -0.131898 -0.0554234 -0.131898 -0.0546682 -0.130059 -0.0472793 -0.111813 -0.046679 -0.110019 -0.046679 -0.110019 -0.0460788 -0.107457 -0.110019 -0.171181 -0.107457 -0.168835 0 0.114503 0 0.1127 0.114503 0.226527 0.1127 0.222962 0 0.1127 0 0.110927 0.1127 0.222962 0.110927 0.219458 -0.0517136 -0.122489 -0.051011 -0.12068 -0.051011 -0.12068 -0.0502173 -0.11892 -0.12068 -0.187948 -0.11892 -0.185065 -0.0502173 -0.11892 -0.0494944 -0.117036 -0.0494944 -0.117036 -0.0487715 -0.115271 -0.133958 -0.056167 -0.131886 -0.0554142 -0.131886 -0.0554142 -0.130049 -0.0546596 0 0.110927 0 0.109185 0.110927 0.219458 0.109185 0.216012 0 0.109185 0 0.107471 0.109185 0.216012 0.107471 0.212622 0 0.107471 0 0.105786 0.107471 0.212622 0.105786 0.209288 0 0.105786 0 0.104128 0.105786 0.209288 0.104128 0.206008 -0.122486 -0.0517096 -0.120677 -0.0510083 -0.187946 -0.120677 -0.185066 -0.11892 -0.120677 -0.0510083 -0.11892 -0.0502169 -0.11892 -0.0502169 -0.117039 -0.0494905 -0.117039 -0.0494905 -0.115296 -0.0487642 0.121416 0.0691749 0.119636 0.0681297 0.119636 0.0681297 0.117866 0.0671788 0.215332 0.181293 0.212164 0.17865 0.181293 0.143301 0.17865 0.141269 0.212164 0.17865 0.209052 0.17606 0.17865 0.141269 0.17606 0.139236 -0.215235 -0.287905 -0.212038 -0.283694 -0.212038 -0.283694 -0.208917 -0.279383 -0.283694 -0.349254 -0.279383 -0.343887 0.209052 0.17606 0.205996 0.173514 0.17606 0.139236 0.173514 0.137282 0.205996 0.173514 0.202995 0.171012 0.173514 0.137282 0.171012 0.135328 -0.0487642 0.0184771 -0.0481059 0.0183178 0.0184771 0.0857183 0.0183178 0.0842612 -0.0481059 0.0183178 -0.0472626 0.0178635 0.0183178 0.0842612 0.0178635 0.0829896 0.0691721 0.121413 0.0681272 0.119633 0.0681272 0.119633 0.0671766 0.117864 0.166944 0.216935 0.164424 0.213615 0.216941 0.166959 0.21362 0.164434 -0.111756 -0.0472626 -0.110043 -0.0466725 -0.171205 -0.110043 -0.168844 -0.107463 -0.110043 -0.0466725 -0.107463 -0.0460823 0.143329 0.181379 0.141283 0.178621 0.141283 0.178621 0.139237 0.17606 0.142298 0.246161 0.139902 0.242297 0.139902 0.242297 0.137548 0.23831 0.242297 0.339413 0.23831 0.333879 0.139237 0.17606 0.137283 0.173514 0.137283 0.173514 0.135328 0.171012 0.0899577 0.132454 0.088599 0.130516 0.088599 0.130516 0.0872618 0.128574 0.130516 0.169552 0.128574 0.166976 0.132454 0.0899576 0.130516 0.088599 0.169552 0.130516 0.166976 0.128574 0.130516 0.088599 0.128574 0.0872618 0.137548 0.23831 0.135208 0.2344 0.23831 0.333879 0.2344 0.328497 0.135208 0.2344 0.132902 0.230559 0.2344 0.328497 0.230559 0.323202 0.142295 0.0352622 0.139899 0.0345228 0.0352622 -0.0725442 0.0345228 -0.0716158 0.139899 0.0345228 0.137544 0.0337916 0.0345228 -0.0716158 0.0337916 -0.0707023 0.137544 0.0337916 0.135205 0.0330676 0.0337916 -0.0707023 0.0330676 -0.0698034 0.135205 0.0330676 0.132898 0.0323457 0.0330676 -0.0698034 0.0323457 -0.0689186 -0.296758 -0.221704 -0.292196 -0.218416 -0.292196 -0.218416 -0.287988 -0.215192 -0.354594 -0.287988 -0.349152 -0.283632 -0.287988 -0.215192 -0.283632 -0.212025 -0.349152 -0.283632 -0.34386 -0.279348 -0.283632 -0.212025 -0.279348 -0.208894 0.323198 0.230556 0.317996 0.226791 0.230556 0.132898 0.226791 0.130611 0.317996 0.226791 0.312877 0.223091 0.226791 0.130611 0.223091 0.128478 0.312877 0.223091 0.307841 0.219447 0.223091 0.128478 0.219447 0.126289 0.307841 0.219447 0.302876 0.215851 0.219447 0.126289 0.215851 0.1241 0.302876 0.215851 0.297991 0.212311 0.215851 0.1241 0.212311 0.122004 0.297991 0.212311 0.293192 0.208838 0.212311 0.122004 0.208838 0.119908 0.293192 0.208838 0.288475 0.205423 0.208838 0.119908 0.205423 0.117888 0.288475 0.205423 0.283837 0.202068 0.205423 0.117888 0.202068 0.115869 -0.298631 -0.189612 -0.294198 -0.186882 -0.189612 -0.0764887 -0.186882 -0.0755091 -0.294198 -0.186882 -0.289867 -0.184243 -0.186882 -0.0755091 -0.184243 -0.0745233 0 0.104128 0 0.102496 0.104128 0.206008 0.102496 0.20278 0 0.102496 0 0.10089 0.102496 0.20278 0.10089 0.199602 -0.0745233 0.0367335 -0.0734749 0.0359925 0.0367335 0.147113 0.0359925 0.14474 -0.0734749 0.0359925 -0.0725406 0.0352653 0.0359925 0.14474 0.0352653 0.142298 0.283837 0.202068 0.279272 0.198767 0.202068 0.115869 0.198767 0.113921 0.279272 0.198767 0.27478 0.195525 0.198767 0.113921 0.195525 0.111974 0.27478 0.195525 0.270367 0.192335 0.195525 0.111974 0.192335 0.110096 0.270367 0.192335 0.266026 0.189205 0.192335 0.110096 0.189205 0.108218 0.266026 0.189205 0.261756 0.186125 0.189205 0.108218 0.186125 0.106422 0.261756 0.186125 0.257557 0.183093 0.186125 0.106422 0.183093 0.104626 0.257557 0.183093 0.253415 0.180126 0.183093 0.104626 0.180126 0.10281 0.253415 0.180126 0.249342 0.177113 0.132902 0.230559 0.130615 0.226795 0.230559 0.323202 0.226795 0.317999 0.130615 0.226795 0.128481 0.223094 0.226795 0.317999 0.223094 0.312881 0.128481 0.223094 0.126292 0.21945 0.223094 0.312881 0.21945 0.307845 0.126292 0.21945 0.124104 0.215855 0.21945 0.307845 0.215855 0.302881 0.124104 0.215855 0.122009 0.212316 0.215855 0.302881 0.212316 0.297995 0.122009 0.212316 0.119914 0.208844 0.212316 0.297995 0.208844 0.293197 0.119914 0.208844 0.117895 0.205428 0.208844 0.293197 0.205428 0.288481 0.117895 0.205428 0.115876 0.202074 0.205428 0.288481 0.202074 0.283843 0.199603 0.10089 0.196472 0.0993075 0.10089 2.53011e-16 0.0993075 2.49089e-16 0.196472 0.0993075 0.193387 0.0977463 0.0993075 2.49089e-16 0.0977463 2.45227e-16 0.193387 0.0977463 0.190315 0.0962249 0.0977463 2.45227e-16 0.0962249 2.41425e-16 0.190315 0.0962249 0.187453 0.0947302 0.0962249 2.41425e-16 0.0947302 2.37682e-16 0.115876 0.202074 0.113927 0.198773 0.202074 0.283843 0.198773 0.279278 0.113927 0.198773 0.111978 0.19553 0.198773 0.279278 0.19553 0.274786 0.111978 0.19553 0.110099 0.19234 0.19553 0.274786 0.19234 0.270372 0.110099 0.19234 0.10822 0.189209 0.19234 0.270372 0.189209 0.266032 0.10822 0.189209 0.106425 0.18613 0.189209 0.266032 0.18613 0.261762 0.106425 0.18613 0.104629 0.183098 0.18613 0.261762 0.183098 0.257563 0.104629 0.183098 0.102814 0.180131 0.183098 0.257563 0.180131 0.25342 0.180131 0.25342 0.177119 0.249348 0.249342 0.177113 0.245341 0.174268 0.245341 0.174268 0.241423 0.171454 0.241423 0.171454 0.23757 0.16869 0.23757 0.16869 0.233804 0.165962 -0.0725406 0.0352653 -0.0716115 0.0345264 0.0352653 0.142298 0.0345264 0.139902 -0.0716115 0.0345264 -0.0706975 0.0337956 0.0345264 0.139902 0.0337956 0.137548 -0.0706975 0.0337956 -0.0697983 0.0330717 0.0337956 0.137548 0.0330717 0.135208 -0.0697983 0.0330717 -0.0689137 0.0323498 0.0330717 0.135208 0.0323498 0.132902 -0.185065 -0.247298 -0.182167 -0.243467 -0.247298 -0.304259 -0.243467 -0.29952 -0.182167 -0.243467 -0.179375 -0.239716 -0.243467 -0.29952 -0.239716 -0.294908 -0.179375 -0.239716 -0.176698 -0.236033 -0.239716 -0.294908 -0.236033 -0.290367 -0.176698 -0.236033 -0.173944 -0.232398 -0.236033 -0.290367 -0.232398 -0.285897 -0.173944 -0.232398 -0.171181 -0.228841 -0.232398 -0.285897 -0.228841 -0.281492 -0.171181 -0.228841 -0.168835 -0.225333 -0.228841 -0.281492 -0.225333 -0.277147 -0.168835 -0.225333 -0.166174 -0.221866 -0.225333 -0.277147 -0.221866 -0.272852 -0.166174 -0.221866 -0.163512 -0.218406 -0.221866 -0.272852 -0.218406 -0.268612 -0.208917 -0.279383 -0.205693 -0.275181 -0.279383 -0.343887 -0.275181 -0.338676 -0.205693 -0.275181 -0.202728 -0.271125 -0.275181 -0.338676 -0.271125 -0.333584 -0.34386 -0.279348 -0.338658 -0.275161 -0.279348 -0.208894 -0.275161 -0.205676 -0.338658 -0.275161 -0.333572 -0.271111 -0.275161 -0.205676 -0.271111 -0.202715 0.177119 0.249348 0.174273 0.245347 0.174273 0.245347 0.171459 0.241428 0.171459 0.241428 0.168695 0.237575 0.168695 0.237575 0.165967 0.233808 0 0.0835141 0 0.0821766 0.0835141 0.165225 0.0821766 0.162643 0 0.0821766 0 0.0808672 0 0.0808672 0 0.0795509 0.0808672 0.160075 0.0795509 0.157485 0 0.0795509 0 0.0776182 0.0795509 0.157485 0.0776182 0.155236 0.160075 0.235806 0.157485 0.232103 0.235806 0.306377 0.232103 0.301571 0.157485 0.232103 0.155236 0.228484 0.232103 0.301571 0.228484 0.29686 -0.304257 -0.247297 -0.299517 -0.243468 -0.247297 -0.185066 -0.243468 -0.18217 -0.299517 -0.243468 -0.294902 -0.239708 -0.243468 -0.18217 -0.239708 -0.1794 -0.294902 -0.239708 -0.290358 -0.236015 -0.239708 -0.1794 -0.236015 -0.17664 -0.290358 -0.236015 -0.285888 -0.23238 -0.236015 -0.17664 -0.23238 -0.173887 -0.285888 -0.23238 -0.281487 -0.228834 -0.23238 -0.173887 -0.228834 -0.171205 -0.281487 -0.228834 -0.277146 -0.225336 -0.228834 -0.171205 -0.225336 -0.168844 -0.277146 -0.225336 -0.272853 -0.221869 -0.225336 -0.168844 -0.221869 -0.166179 -0.272853 -0.221869 -0.268614 -0.218409 -0.221869 -0.166179 -0.218409 -0.163515 0.132898 0.0323457 0.130611 0.0316187 0.0323457 -0.0689186 0.0316187 -0.0680576 0.130611 0.0316187 0.128478 0.0306538 0.0316187 -0.0680576 0.0306538 -0.06717 -0.0764887 0.0382904 -0.0755091 0.0374921 0.0382904 0.152241 0.0374921 0.149668 -0.0755091 0.0374921 -0.0745233 0.0367335 0.0374921 0.149668 0.0367335 0.147113 0.165227 0.0835151 0.162645 0.0821776 0.0835151 2.09754e-16 0.0821776 2.06502e-16 0.0821776 2.06502e-16 0.0808683 2.033e-16 0.306381 0.235809 0.301576 0.232107 0.235809 0.160077 0.232107 0.157487 0.301576 0.232107 0.296865 0.228488 0.232107 0.157487 0.228488 0.155239 0.160077 0.0808683 0.157487 0.0795521 0.0808683 2.033e-16 0.0795521 2.00149e-16 0.157487 0.0795521 0.155239 0.0776195 0.0795521 2.00149e-16 0.0776195 1.97046e-16 -0.0689137 0.0323498 -0.0680531 0.0316226 0.0323498 0.132902 0.0316226 0.130615 -0.0680531 0.0316226 -0.0671662 0.0306575 0.0316226 0.130615 0.0306575 0.128481 0.226527 0.114503 0.222962 0.1127 0.114503 2.867e-16 0.1127 2.82255e-16 0.222962 0.1127 0.219458 0.110927 0.1127 2.82255e-16 0.110927 2.77879e-16 0.219458 0.110927 0.216012 0.109185 0.110927 2.77879e-16 0.109185 2.73571e-16 0.216012 0.109185 0.212622 0.107472 0.109185 2.73571e-16 0.107472 2.69329e-16 0.212622 0.107472 0.209288 0.105786 0.107472 2.69329e-16 0.105786 2.65154e-16 0.209288 0.105786 0.206008 0.104128 0.105786 2.65154e-16 0.104128 2.61043e-16