# vtk DataFile Version 3.0
#This file was generated by the deal.II library on 2018/12/4 at 0:47:17
ASCII
DATASET UNSTRUCTURED_GRID

POINTS 54304 double
0 0.125 0
0.03125 0.125 0
0 0.15625 0
0.03125 0.15625 0
0 0.15625 0
0.03125 0.15625 0
0 0.1875 0
0.03125 0.1875 0
0.3125 0 0
0.34375 0 0
0.3125 0.03125 0
0.34375 0.03125 0
0 0 0
0.03125 0 0
0 0.03125 0
0.03125 0.03125 0
0 0.03125 0
0.03125 0.03125 0
0 0.0625 0
0.03125 0.0625 0
0 0.0625 0
0.03125 0.0625 0
0 0.09375 0
0.03125 0.09375 0
0 0.09375 0
0.03125 0.09375 0
0 0.125 0
0.03125 0.125 0
0.96875 0.125 0
1 0.125 0
0.96875 0.15625 0
1 0.15625 0
0.96875 0.15625 0
1 0.15625 0
0.96875 0.1875 0
1 0.1875 0
0.65625 0 0
0.6875 0 0
0.65625 0.03125 0
0.6875 0.03125 0
0.96875 0 0
1 0 0
0.96875 0.03125 0
1 0.03125 0
0.96875 0.03125 0
1 0.03125 0
0.96875 0.0625 0
1 0.0625 0
0.96875 0.0625 0
1 0.0625 0
0.96875 0.09375 0
1 0.09375 0
0.96875 0.09375 0
1 0.09375 0
0.96875 0.125 0
1 0.125 0
0 0.65625 0
0.03125 0.65625 0
0 0.6875 0
0.03125 0.6875 0
0.96875 0.65625 0
1 0.65625 0
0.96875 0.6875 0
1 0.6875 0
0 0.5625 0
0.03125 0.5625 0
0 0.59375 0
0.03125 0.59375 0
0 0.59375 0
0.03125 0.59375 0
0 0.625 0
0.03125 0.625 0
0 0.25 0
0.03125 0.25 0
0 0.28125 0
0.03125 0.28125 0
0.96875 0.25 0
1 0.25 0
0.96875 0.28125 0
1 0.28125 0
0.3125 0.375 0
0.34375 0.375 0
0.3125 0.40625 0
0.34375 0.40625 0
0.3125 0.40625 0
0.34375 0.40625 0
0.3125 0.4375 0
0.34375 0.4375 0
0.34375 0.40625 0
0.375 0.40625 0
0.34375 0.4375 0
0.375 0.4375 0
0.3125 0.4375 0
0.34375 0.4375 0
0.3125 0.46875 0
0.34375 0.46875 0
0.34375 0.4375 0
0.375 0.4375 0
0.34375 0.46875 0
0.375 0.46875 0
0.3125 0.46875 0
0.34375 0.46875 0
0.3125 0.5 0
0.34375 0.5 0
0 0.75 0
0.03125 0.75 0
0 0.78125 0
0.03125 0.78125 0
0 0.78125 0
0.03125 0.78125 0
0 0.8125 0
0.03125 0.8125 0
0 0.8125 0
0.03125 0.8125 0
0 0.84375 0
0.03125 0.84375 0
0 0.84375 0
0.03125 0.84375 0
0 0.875 0
0.03125 0.875 0
0.65625 0.375 0
0.6875 0.375 0
0.65625 0.40625 0
0.6875 0.40625 0
0.625 0.40625 0
0.65625 0.40625 0
0.625 0.4375 0
0.65625 0.4375 0
0.65625 0.40625 0
0.6875 0.40625 0
0.65625 0.4375 0
0.6875 0.4375 0
0.625 0.4375 0
0.65625 0.4375 0
0.625 0.46875 0
0.65625 0.46875 0
0.65625 0.4375 0
0.6875 0.4375 0
0.65625 0.46875 0
0.6875 0.46875 0
0.65625 0.46875 0
0.6875 0.46875 0
0.65625 0.5 0
0.6875 0.5 0
0.96875 0.75 0
1 0.75 0
0.96875 0.78125 0
1 0.78125 0
0.96875 0.78125 0
1 0.78125 0
0.96875 0.8125 0
1 0.8125 0
0.96875 0.8125 0
1 0.8125 0
0.96875 0.84375 0
1 0.84375 0
0.96875 0.84375 0
1 0.84375 0
0.96875 0.875 0
1 0.875 0
0.3125 0.75 0
0.34375 0.75 0
0.3125 0.78125 0
0.34375 0.78125 0
0.3125 0.78125 0
0.34375 0.78125 0
0.3125 0.8125 0
0.34375 0.8125 0
0.3125 0.8125 0
0.34375 0.8125 0
0.3125 0.84375 0
0.34375 0.84375 0
0.3125 0.84375 0
0.34375 0.84375 0
0.3125 0.875 0
0.34375 0.875 0
0.3125 0.875 0
0.34375 0.875 0
0.3125 0.90625 0
0.34375 0.90625 0
0.3125 0.90625 0
0.34375 0.90625 0
0.3125 0.9375 0
0.34375 0.9375 0
0.34375 0.9375 0
0.375 0.9375 0
0.34375 0.96875 0
0.375 0.96875 0
0.34375 0.96875 0
0.375 0.96875 0
0.34375 1 0
0.375 1 0
0.65625 0.75 0
0.6875 0.75 0
0.65625 0.78125 0
0.6875 0.78125 0
0.65625 0.78125 0
0.6875 0.78125 0
0.65625 0.8125 0
0.6875 0.8125 0
0.65625 0.8125 0
0.6875 0.8125 0
0.65625 0.84375 0
0.6875 0.84375 0
0.65625 0.84375 0
0.6875 0.84375 0
0.65625 0.875 0
0.6875 0.875 0
0.65625 0.875 0
0.6875 0.875 0
0.65625 0.90625 0
0.6875 0.90625 0
0.65625 0.90625 0
0.6875 0.90625 0
0.65625 0.9375 0
0.6875 0.9375 0
0 0.6875 0
0.03125 0.6875 0
0 0.71875 0
0.03125 0.71875 0
0 0.71875 0
0.03125 0.71875 0
0 0.75 0
0.03125 0.75 0
0.96875 0.6875 0
1 0.6875 0
0.96875 0.71875 0
1 0.71875 0
0.96875 0.71875 0
1 0.71875 0
0.96875 0.75 0
1 0.75 0
0.625 0.9375 0
0.65625 0.9375 0
0.625 0.96875 0
0.65625 0.96875 0
0.625 0.96875 0
0.65625 0.96875 0
0.625 1 0
0.65625 1 0
0 0.96875 0
0.03125 0.96875 0
0 1 0
0.03125 1 0
0.96875 0.96875 0
1 0.96875 0
0.96875 1 0
1 1 0
0.03125 0.125 0
0.046875 0.125 0
0.03125 0.140625 0
0.046875 0.140625 0
0.046875 0.125 0
0.0625 0.125 0
0.046875 0.140625 0
0.0625 0.140625 0
0.03125 0.140625 0
0.046875 0.140625 0
0.03125 0.15625 0
0.046875 0.15625 0
0.046875 0.140625 0
0.0625 0.140625 0
0.046875 0.15625 0
0.0625 0.15625 0
0.0625 0.1875 0
0.078125 0.1875 0
0.0625 0.203125 0
0.078125 0.203125 0
0.0625 0.203125 0
0.078125 0.203125 0
0.0625 0.21875 0
0.078125 0.21875 0
0.0625 0.21875 0
0.078125 0.21875 0
0.0625 0.234375 0
0.078125 0.234375 0
0.0625 0.234375 0
0.078125 0.234375 0
0.0625 0.25 0
0.078125 0.25 0
0.921875 0.1875 0
0.9375 0.1875 0
0.921875 0.203125 0
0.9375 0.203125 0
0.921875 0.203125 0
0.9375 0.203125 0
0.921875 0.21875 0
0.9375 0.21875 0
0.921875 0.21875 0
0.9375 0.21875 0
0.921875 0.234375 0
0.9375 0.234375 0
0.921875 0.234375 0
0.9375 0.234375 0
0.921875 0.25 0
0.9375 0.25 0
0.0625 0.25 0
0.078125 0.25 0
0.0625 0.265625 0
0.078125 0.265625 0
0.0625 0.265625 0
0.078125 0.265625 0
0.0625 0.28125 0
0.078125 0.28125 0
0.921875 0.25 0
0.9375 0.25 0
0.921875 0.265625 0
0.9375 0.265625 0
0.921875 0.265625 0
0.9375 0.265625 0
0.921875 0.28125 0
0.9375 0.28125 0
0.96875 0.59375 0
0.984375 0.59375 0
0.96875 0.609375 0
0.984375 0.609375 0
0.984375 0.59375 0
1 0.59375 0
0.984375 0.609375 0
1 0.609375 0
0.96875 0.609375 0
0.984375 0.609375 0
0.96875 0.625 0
0.984375 0.625 0
0.984375 0.609375 0
1 0.609375 0
0.984375 0.625 0
1 0.625 0
0.28125 0 0
0.296875 0 0
0.28125 0.015625 0
0.296875 0.015625 0
0.296875 0 0
0.3125 0 0
0.296875 0.015625 0
0.3125 0.015625 0
0.28125 0.015625 0
0.296875 0.015625 0
0.28125 0.03125 0
0.296875 0.03125 0
0.296875 0.015625 0
0.3125 0.015625 0
0.296875 0.03125 0
0.3125 0.03125 0
0.265625 0.046875 0
0.28125 0.046875 0
0.265625 0.0625 0
0.28125 0.0625 0
0.28125 0.03125 0
0.296875 0.03125 0
0.28125 0.046875 0
0.296875 0.046875 0
0.296875 0.03125 0
0.3125 0.03125 0
0.296875 0.046875 0
0.3125 0.046875 0
0.28125 0.046875 0
0.296875 0.046875 0
0.28125 0.0625 0
0.296875 0.0625 0
0.265625 0.0625 0
0.28125 0.0625 0
0.265625 0.078125 0
0.28125 0.078125 0
0.265625 0.078125 0
0.28125 0.078125 0
0.265625 0.09375 0
0.28125 0.09375 0
0.59375 0.96875 0
0.609375 0.96875 0
0.59375 0.984375 0
0.609375 0.984375 0
0.609375 0.96875 0
0.625 0.96875 0
0.609375 0.984375 0
0.625 0.984375 0
0.59375 0.984375 0
0.609375 0.984375 0
0.59375 1 0
0.609375 1 0
0.609375 0.984375 0
0.625 0.984375 0
0.609375 1 0
0.625 1 0
0.25 0.09375 0
0.265625 0.09375 0
0.25 0.109375 0
0.265625 0.109375 0
0.265625 0.09375 0
0.28125 0.09375 0
0.265625 0.109375 0
0.28125 0.109375 0
0.25 0.109375 0
0.265625 0.109375 0
0.25 0.125 0
0.265625 0.125 0
0.265625 0.109375 0
0.28125 0.109375 0
0.265625 0.125 0
0.28125 0.125 0
0.03125 0.15625 0
0.046875 0.15625 0
0.03125 0.171875 0
0.046875 0.171875 0
0.046875 0.15625 0
0.0625 0.15625 0
0.046875 0.171875 0
0.0625 0.171875 0
0.03125 0.171875 0
0.046875 0.171875 0
0.03125 0.1875 0
0.046875 0.1875 0
0.046875 0.171875 0
0.0625 0.171875 0
0.046875 0.1875 0
0.0625 0.1875 0
0.375 0.3125 0
0.390625 0.3125 0
0.375 0.328125 0
0.390625 0.328125 0
0.390625 0.3125 0
0.40625 0.3125 0
0.390625 0.328125 0
0.40625 0.328125 0
0.375 0.328125 0
0.390625 0.328125 0
0.375 0.34375 0
0.390625 0.34375 0
0.390625 0.328125 0
0.40625 0.328125 0
0.390625 0.34375 0
0.40625 0.34375 0
0.40625 0.328125 0
0.421875 0.328125 0
0.40625 0.34375 0
0.421875 0.34375 0
0.421875 0.328125 0
0.4375 0.328125 0
0.421875 0.34375 0
0.4375 0.34375 0
0.34375 0.03125 0
0.359375 0.03125 0
0.34375 0.046875 0
0.359375 0.046875 0
0.359375 0.03125 0
0.375 0.03125 0
0.359375 0.046875 0
0.375 0.046875 0
0.34375 0.046875 0
0.359375 0.046875 0
0.34375 0.0625 0
0.359375 0.0625 0
0.359375 0.046875 0
0.375 0.046875 0
0.359375 0.0625 0
0.375 0.0625 0
0.40625 0.34375 0
0.421875 0.34375 0
0.40625 0.359375 0
0.421875 0.359375 0
0.421875 0.34375 0
0.4375 0.34375 0
0.421875 0.359375 0
0.4375 0.359375 0
0.40625 0.359375 0
0.421875 0.359375 0
0.40625 0.375 0
0.421875 0.375 0
0.421875 0.359375 0
0.4375 0.359375 0
0.421875 0.375 0
0.4375 0.375 0
0.375 0.25 0
0.390625 0.25 0
0.375 0.265625 0
0.390625 0.265625 0
0.390625 0.25 0
0.40625 0.25 0
0.390625 0.265625 0
0.40625 0.265625 0
0.375 0.265625 0
0.390625 0.265625 0
0.375 0.28125 0
0.390625 0.28125 0
0.390625 0.265625 0
0.40625 0.265625 0
0.390625 0.28125 0
0.40625 0.28125 0
0.03125 0.0625 0
0.046875 0.0625 0
0.03125 0.078125 0
0.046875 0.078125 0
0.046875 0.0625 0
0.0625 0.0625 0
0.046875 0.078125 0
0.0625 0.078125 0
0.03125 0.078125 0
0.046875 0.078125 0
0.03125 0.09375 0
0.046875 0.09375 0
0.046875 0.078125 0
0.0625 0.078125 0
0.046875 0.09375 0
0.0625 0.09375 0
0.03125 0.09375 0
0.046875 0.09375 0
0.03125 0.109375 0
0.046875 0.109375 0
0.046875 0.09375 0
0.0625 0.09375 0
0.046875 0.109375 0
0.0625 0.109375 0
0.03125 0.109375 0
0.046875 0.109375 0
0.03125 0.125 0
0.046875 0.125 0
0.046875 0.109375 0
0.0625 0.109375 0
0.046875 0.125 0
0.0625 0.125 0
0.6875 0 0
0.703125 0 0
0.6875 0.015625 0
0.703125 0.015625 0
0.703125 0 0
0.71875 0 0
0.703125 0.015625 0
0.71875 0.015625 0
0.6875 0.015625 0
0.703125 0.015625 0
0.6875 0.03125 0
0.703125 0.03125 0
0.703125 0.015625 0
0.71875 0.015625 0
0.703125 0.03125 0
0.71875 0.03125 0
0.6875 0.03125 0
0.703125 0.03125 0
0.6875 0.046875 0
0.703125 0.046875 0
0.703125 0.03125 0
0.71875 0.03125 0
0.703125 0.046875 0
0.71875 0.046875 0
0.703125 0.046875 0
0.71875 0.046875 0
0.703125 0.0625 0
0.71875 0.0625 0
0.71875 0.046875 0
0.734375 0.046875 0
0.71875 0.0625 0
0.734375 0.0625 0
0.375 0.28125 0
0.390625 0.28125 0
0.375 0.296875 0
0.390625 0.296875 0
0.390625 0.28125 0
0.40625 0.28125 0
0.390625 0.296875 0
0.40625 0.296875 0
0.375 0.296875 0
0.390625 0.296875 0
0.375 0.3125 0
0.390625 0.3125 0
0.390625 0.296875 0
0.40625 0.296875 0
0.390625 0.3125 0
0.40625 0.3125 0
0.71875 0.0625 0
0.734375 0.0625 0
0.71875 0.078125 0
0.734375 0.078125 0
0.71875 0.078125 0
0.734375 0.078125 0
0.71875 0.09375 0
0.734375 0.09375 0
0.28125 0.65625 0
0.296875 0.65625 0
0.28125 0.671875 0
0.296875 0.671875 0
0.296875 0.65625 0
0.3125 0.65625 0
0.296875 0.671875 0
0.3125 0.671875 0
0.28125 0.671875 0
0.296875 0.671875 0
[...]
POINT_DATA 54304
SCALARS U double 1
LOOKUP_TABLE default
0 0.203564 0 0.197247 0 0.197247 0 0.191249 0.155316 -0.0780338 0.150123 -0.0760325 0 0.231103 0 0.22387 0 0.22387 0 0.21688 0 0.21688 0 0.210113 0 0.210113 0 0.203564 0.203565 2.58123e-16 0.197248 2.50181e-16 0.197248 2.50181e-16 0.191251 2.42484e-16 -0.0780338 0.155316 -0.0760306 0.150125 0.231103 2.92491e-16 0.223871 2.83492e-16 0.223871 2.83492e-16 0.21688 2.7477e-16 0.21688 2.7477e-16 0.210114 2.66316e-16 0.210114 2.66316e-16 0.203565 2.58123e-16 0 0.119258 0 0.115548 0.119288 1.51742e-16 0.11555 1.47074e-16 0 0.13102 0 0.126899 0 0.126899 0 0.123048 0 0.179578 0 0.173999 0.17958 2.27792e-16 0.174001 2.20784e-16 0.102479 -0.0577602 0.098973 -0.0566066 0.098973 -0.0566066 0.0956229 -0.0551208 -0.0566066 -0.207681 -0.0551208 -0.201434 0.0956229 -0.0551208 0.0924964 -0.0536673 -0.0551208 -0.201434 -0.0536673 -0.195581 0.0924964 -0.0536673 0.0895318 -0.0518936 0 0.108567 0 0.105234 0 0.105234 0 0.10207 0 0.10207 0 0.0989832 0 0.0989832 0 0.0960521 -0.0577485 0.102496 -0.056598 0.0989851 -0.207677 -0.056598 -0.201427 -0.0551123 -0.056598 0.0989851 -0.0551123 0.0956332 -0.201427 -0.0551123 -0.195575 -0.0536597 -0.0551123 0.0956332 -0.0536597 0.0925059 -0.0536597 0.0925059 -0.0518879 0.0895398 0.108567 1.38163e-16 0.105233 1.33912e-16 0.105233 1.33912e-16 0.102068 1.29792e-16 0.102068 1.29792e-16 0.0989812 1.25799e-16 0.0989812 1.25799e-16 0.09605 1.21929e-16 0.0700203 -0.0401716 0.0680964 -0.0386887 0.0680964 -0.0386887 0.0662853 -0.0372003 0.0662853 -0.0372003 0.0645682 -0.0357217 0.0645682 -0.0357217 0.0629404 -0.0342563 0.0629404 -0.0342563 0.0613706 -0.032766 0.0613706 -0.032766 0.0598956 -0.0315114 -0.0315114 -0.120288 -0.0301189 -0.116082 -0.0301189 -0.116082 -0.028707 -0.112079 -0.0401848 0.0700053 -0.0387012 0.0680816 -0.0387012 0.0680816 -0.0372101 0.0662723 -0.0372101 0.0662723 -0.0357267 0.0645586 -0.0357267 0.0645586 -0.0342557 0.0629334 -0.0342557 0.0629334 -0.0327624 0.061364 -0.0327624 0.061364 -0.0315091 0.0598912 0 0.115548 0 0.11202 0 0.11202 0 0.108567 0.11555 1.47074e-16 0.112021 1.42549e-16 0.112021 1.42549e-16 0.108567 1.38163e-16 -0.120289 -0.0315091 -0.116091 -0.0301191 -0.116091 -0.0301191 -0.112079 -0.028707 0 0.0876833 0 0.0850179 0.0876826 1.11017e-16 0.0850179 1.07602e-16 0.203564 0.299836 0.200405 0.295128 0.299836 0.389588 0.295128 0.383467 0.200405 0.295128 0.197247 0.290508 0.295128 0.383467 0.290508 0.37744 0.365843 0.442149 0.359854 0.435072 0.359854 0.435072 0.354222 0.4282 0.354222 0.4282 0.348634 0.421498 0.348634 0.421498 0.343368 0.414921 0.442153 0.365847 0.435076 0.359858 0.435076 0.359858 0.428204 0.354225 0.428204 0.354225 0.421503 0.348638 0.421503 0.348638 0.414926 0.343372 0.343368 0.414921 0.337988 0.408427 0.337988 0.408427 0.332692 0.401907 0.414926 0.343372 0.408433 0.337993 0.408433 0.337993 0.401913 0.332697 0.126829 0.0641291 0.124864 0.063111 0.0641291 1.61529e-16 0.063111 1.59025e-16 0.124864 0.063111 0.122885 0.062122 0.063111 1.59025e-16 0.062122 1.56559e-16 0.37529 0.268206 0.369201 0.263806 0.268206 0.155316 0.263806 0.15272 0.369201 0.263806 0.363152 0.25949 0.263806 0.15272 0.25949 0.150123 0.451936 0.357477 0.444523 0.35165 0.363152 0.25949 0.357477 0.255266 0.25949 0.150123 0.255266 0.147501 0.357477 0.255266 0.35165 0.251048 0.444523 0.35165 0.437263 0.345787 0.437263 0.345787 0.430486 0.340269 -0.192137 -0.15579 -0.188927 -0.15316 -0.15579 -0.116091 -0.15316 -0.114085 -0.188927 -0.15316 -0.1858 -0.150569 -0.15316 -0.114085 -0.150569 -0.112079 0.511358 0.430486 0.503057 0.423571 0.430486 0.340269 0.423571 0.334811 0.503057 0.423571 0.49507 0.416861 0.423571 0.334811 0.416861 0.329409 0.197247 0.290508 0.194248 0.286 0.290508 0.37744 0.286 0.371457 0.194248 0.286 0.191249 0.281624 0.286 0.371457 0.281624 0.365843 -0.226747 -0.30324 -0.223465 -0.29877 -0.30324 -0.373134 -0.29877 -0.367787 -0.223465 -0.29877 -0.220097 -0.294446 -0.29877 -0.367787 -0.294446 -0.362267 -0.367787 -0.429011 -0.362267 -0.422355 -0.429011 -0.48076 -0.422355 -0.473394 -0.0760325 -0.187983 -0.0752034 -0.185264 -0.187983 -0.295747 -0.185264 -0.291359 -0.0752034 -0.185264 -0.0742419 -0.182625 -0.185264 -0.291359 -0.182625 -0.28707 -0.362267 -0.422355 -0.356606 -0.415926 -0.422355 -0.473394 -0.415926 -0.466194 -0.356606 -0.415926 -0.351244 -0.40964 -0.415926 -0.466194 -0.40964 -0.459227 -0.240425 -0.321863 -0.23691 -0.317087 -0.321863 -0.396401 -0.317087 -0.390474 -0.23691 -0.317087 -0.23342 -0.312393 -0.317087 -0.390474 -0.312393 -0.38463 0.21688 0.319454 0.213496 0.314426 0.319454 0.415091 0.314426 0.40856 0.213496 0.314426 0.210113 0.309484 0.314426 0.40856 0.309484 0.402133 0.210113 0.309484 0.206839 0.304617 0.309484 0.402133 0.304617 0.39581 0.206839 0.304617 0.203564 0.299836 0.304617 0.39581 0.299836 0.389588 0.155316 0.268206 0.152721 0.263806 0.268206 0.37529 0.263806 0.369202 0.152721 0.263806 0.150125 0.259492 0.263806 0.369202 0.259492 0.363154 0.150125 0.259492 0.147504 0.255269 0.259492 0.363154 0.255269 0.35748 0.255269 0.35748 0.251051 0.351654 0.35748 0.451939 0.351654 0.444526 -0.23342 -0.312393 -0.23012 -0.307765 -0.312393 -0.38463 -0.307765 -0.378864 -0.23012 -0.307765 -0.226747 -0.30324 -0.307765 -0.378864 -0.30324 -0.373134 0.351654 0.444526 0.345791 0.437268 0.345791 0.437268 0.340275 0.430492 0.190565 0.134958 0.187622 0.132907 0.134958 0.0763801 0.132907 0.0752361 0.187622 0.132907 0.184769 0.130898 0.132907 0.0752361 0.130898 0.0741251 0.340275 0.430492 0.334817 0.423578 0.430492 0.511364 0.423578 0.503063 0.334817 0.423578 0.329416 0.416867 0.423578 0.503063 0.416867 0.495077 0.389591 0.299838 0.38347 0.29513 0.299838 0.203565 0.29513 0.200407 0.38347 0.29513 0.377443 0.29051 0.29513 0.200407 0.29051 0.197248 -0.442036 -0.379009 -0.435161 -0.37332 -0.384536 -0.312403 -0.379009 -0.307818 -0.312403 -0.233472 -0.307818 -0.230089 -0.379009 -0.307818 -0.37332 -0.303391 -0.307818 -0.230089 -0.303391 -0.226754 -0.435161 -0.37332 -0.428798 -0.36753 -0.480761 -0.428798 -0.473339 -0.422262 -0.428798 -0.36753 -0.422262 -0.362084 0.231103 0.340387 0.227487 0.335027 0.340387 0.442303 0.335027 0.435332 0.227487 0.335027 0.22387 0.329753 0.335027 0.435332 0.329753 0.428474 -0.473339 -0.422262 -0.466161 -0.415882 -0.422262 -0.362084 -0.415882 -0.356645 -0.466161 -0.415882 -0.459209 -0.409631 -0.415882 -0.356645 -0.409631 -0.351247 0.184769 0.130898 0.181972 0.12894 0.130898 0.0741251 0.12894 0.0730433 0.181972 0.12894 0.179269 0.127015 0.12894 0.0730433 0.127015 0.0719911 0.22387 0.329753 0.220375 0.324558 0.329753 0.428474 0.324558 0.421729 0.220375 0.324558 0.21688 0.319454 0.324558 0.421729 0.319454 0.415091 0.0763709 0.134948 0.0752257 0.132896 0.134948 0.190555 0.132896 0.187611 0.0752257 0.132896 0.0741135 0.130886 0.132896 0.187611 0.130886 0.184758 0.479395 0.403589 0.471694 0.397024 0.403589 0.318826 0.397024 0.313645 0.471694 0.397024 0.46427 0.390663 0.397024 0.313645 0.390663 0.30852 0.377443 0.29051 0.37146 0.286002 0.29051 0.197248 0.286002 0.194249 0.37146 0.286002 0.365847 0.281626 0.286002 0.194249 0.281626 0.191251 0.390663 0.30852 0.384146 0.303484 0.384146 0.303484 0.378033 0.298526 0.0741135 0.130886 0.0730306 0.128927 0.130886 0.184758 0.128927 0.181959 0.0730306 0.128927 0.0719775 0.127001 0.128927 0.181959 0.127001 0.179255 0.378033 0.298526 0.371899 0.293713 0.371899 0.293713 0.366149 0.288975 -0.0742419 -0.182625 -0.0733163 -0.180018 -0.182625 -0.28707 -0.180018 -0.282857 -0.0733163 -0.180018 -0.0724072 -0.177451 -0.180018 -0.282857 -0.177451 -0.278683 -0.0724072 -0.177451 -0.0715126 -0.174924 -0.177451 -0.278683 -0.174924 -0.274578 -0.0715126 -0.174924 -0.0706334 -0.17244 -0.174924 -0.274578 -0.17244 -0.270545 0.435309 0.366149 0.428264 0.360232 0.366149 0.288975 0.360232 0.284318 0.428264 0.360232 0.421416 0.354432 0.360232 0.284318 0.354432 0.279713 -0.396361 -0.32184 -0.390437 -0.317072 -0.32184 -0.240424 -0.317072 -0.236917 -0.390437 -0.317072 -0.384536 -0.312403 -0.317072 -0.236917 -0.312403 -0.233472 0.332692 0.401907 0.327296 0.395788 0.327296 0.395788 0.322187 0.389518 0.395788 0.455579 0.389518 0.448292 0.343254 0.27072 0.337563 0.266314 0.337563 0.266314 0.332129 0.262003 -0.254992 -0.341685 -0.251271 -0.336617 -0.341685 -0.421037 -0.336617 -0.414731 -0.251271 -0.336617 -0.247603 -0.331625 -0.336617 -0.414731 -0.331625 -0.408525 0.332129 0.262003 0.326978 0.257801 0.388944 0.326978 0.38269 0.321709 0.326978 0.257801 0.321709 0.253675 -0.247603 -0.331625 -0.243989 -0.326708 -0.331625 -0.408525 -0.326708 -0.402416 -0.243989 -0.326708 -0.240425 -0.321863 -0.326708 -0.402416 -0.321863 -0.396401 0.401913 0.332697 0.395794 0.327302 0.455587 0.395794 0.4483 0.389525 0.395794 0.327302 0.389525 0.322193 -0.295745 -0.187981 -0.291356 -0.185261 -0.187981 -0.0760306 -0.185261 -0.0752006 -0.291356 -0.185261 -0.287066 -0.182621 -0.185261 -0.0752006 -0.182621 -0.0742381 0.421416 0.354432 0.414626 0.348776 0.354432 0.279713 0.348776 0.275191 0.414626 0.348776 0.4083 0.343254 0.348776 0.275191 0.343254 0.27072 0.318833 0.403597 0.313653 0.397032 0.403597 0.479403 0.397032 0.471703 0.313653 0.397032 0.308528 0.390672 0.397032 0.471703 0.390672 0.46428 0.442303 0.340387 0.435332 0.335028 0.340387 0.231103 0.335028 0.227487 0.435332 0.335028 0.428475 0.329753 0.335028 0.227487 0.329753 0.223871 0.308528 0.390672 0.303492 0.384156 0.303492 0.384156 0.298536 0.378044 0.0895318 0.0188191 0.0880409 0.0186284 0.0188191 -0.0518936 0.0186284 -0.0512818 0.0880409 0.0186284 0.0866478 0.0182863 0.0186284 -0.0512818 0.0182863 -0.0505465 0.298536 0.378044 0.293724 0.37191 0.293724 0.37191 0.288987 0.366161 0.415092 0.319455 0.408561 0.314427 0.319455 0.21688 0.314427 0.213497 0.408561 0.314427 0.402134 0.309486 0.314427 0.213497 0.309486 0.210114 0.428475 0.329753 0.421729 0.324559 0.329753 0.223871 0.324559 0.220375 0.421729 0.324559 0.415092 0.319455 0.324559 0.220375 0.319455 0.21688 0.402134 0.309486 0.395812 0.304619 0.309486 0.210114 0.304619 0.20684 0.395812 0.304619 0.389591 0.299838 0.304619 0.20684 0.299838 0.203565 0.0866478 0.0182863 0.0852644 0.0179557 0.0182863 -0.0505465 0.0179557 -0.0498168 0.0852644 0.0179557 0.0838919 0.0176318 0.0179557 -0.0498168 0.0176318 -0.0490885 0.288987 0.366161 0.284332 0.360246 0.366161 0.435321 0.360246 0.428278 0.284332 0.360246 0.279728 0.354447 0.360246 0.428278 0.354447 0.42143 0.279728 0.354447 0.275208 0.348792 0.354447 0.42143 0.348792 0.414641 0.275208 0.348792 0.270738 0.343271 0.348792 0.414641 0.343271 0.408315 0.38269 0.321709 0.376539 0.31659 0.321709 0.253675 0.31659 0.249595 0.376539 0.31659 0.370809 0.311574 0.31659 0.249595 0.311574 0.245595 0.270738 0.343271 0.266333 0.33758 0.266333 0.33758 0.262021 0.332145 0.370809 0.311574 0.364925 0.306659 0.311574 0.245595 0.306659 0.241668 0.364925 0.306659 0.359198 0.301831 0.306659 0.241668 0.301831 0.237782 0.262021 0.332145 0.257818 0.326994 0.257818 0.326994 0.25369 0.321723 0.326994 0.388958 0.321723 0.382704 -0.287066 -0.182621 -0.282851 -0.180013 -0.182621 -0.0742381 -0.180013 -0.0733117 -0.282851 -0.180013 -0.278675 -0.177445 -0.180013 -0.0733117 -0.177445 -0.0724023 -0.278675 -0.177445 -0.274569 -0.174919 -0.177445 -0.0724023 -0.174919 -0.0715082 -0.274569 -0.174919 -0.270539 -0.172437 -0.174919 -0.0715082 -0.172437 -0.0706307 -0.292379 -0.340807 -0.287895 -0.335496 -0.340807 -0.381871 -0.335496 -0.375912 -0.287895 -0.335496 -0.283439 -0.330294 -0.335496 -0.375912 -0.330294 -0.370085 -0.311077 -0.362562 -0.306159 -0.356823 -0.306159 -0.356823 -0.301506 -0.351387 -0.283439 -0.330294 -0.279043 -0.325176 -0.330294 -0.370085 -0.325176 -0.364355 -0.279043 -0.325176 -0.274675 -0.320158 -0.325176 -0.364355 -0.320158 -0.358734 -0.301506 -0.351387 -0.29692 -0.345937 -0.29692 -0.345937 -0.292379 -0.340807 -0.381871 -0.414666 -0.375912 -0.408261 -0.414666 -0.438752 -0.408261 -0.431633 -0.375912 -0.408261 -0.370085 -0.401938 -0.408261 -0.431633 -0.401938 -0.425272 -0.370085 -0.401938 -0.364355 -0.395745 -0.401938 -0.425272 -0.395745 -0.418689 -0.364355 -0.395745 -0.358734 -0.389573 -0.395745 -0.418689 -0.389573 -0.412163 -0.425272 -0.439592 -0.418689 -0.432678 -0.439592 -0.444328 -0.432678 -0.437387 -0.418689 -0.432678 -0.412163 -0.425928 -0.432678 -0.437387 -0.425928 -0.430552 -0.351244 -0.40964 -0.345935 -0.403178 -0.345935 -0.403178 -0.340928 -0.397408 -0.409631 -0.351247 -0.403172 -0.345934 -0.403172 -0.345934 -0.397403 -0.340925 -0.207681 -0.277317 -0.204557 -0.273092 -0.277317 -0.340928 -0.273092 -0.335825 -0.204557 -0.273092 -0.201434 -0.268976 -0.273092 -0.335825 -0.268976 -0.330738 -0.340928 -0.397408 -0.335825 -0.391389 -0.397408 -0.445426 -0.391389 -0.438575 -0.335825 -0.391389 -0.330738 -0.385437 -0.391389 -0.438575 -0.385437 -0.431892 -0.201434 -0.268976 -0.198507 -0.264921 -0.268976 -0.330738 -0.264921 -0.325718 -0.198507 -0.264921 -0.195581 -0.260897 -0.264921 -0.325718 -0.260897 -0.320771 0.165829 0.244345 0.163249 0.24053 0.244345 0.317324 0.24053 0.312365 -0.330738 -0.385437 -0.325718 -0.379569 -0.385437 -0.431892 -0.379569 -0.425297 -0.325718 -0.379569 -0.320771 -0.373783 -0.379569 -0.425297 -0.373783 -0.418798 -0.36256 -0.311073 -0.356821 -0.306156 -0.356821 -0.306156 -0.351387 -0.301506 -0.195581 -0.260897 -0.192364 -0.256929 -0.260897 -0.320771 -0.256929 -0.315889 -0.256929 -0.315889 -0.25295 -0.311077 -0.351387 -0.301506 -0.345938 -0.296921 -0.345938 -0.296921 -0.340809 -0.292381 -0.320771 -0.373783 -0.315889 -0.368121 -0.373783 -0.418798 -0.368121 -0.412356 -0.315889 -0.368121 -0.311077 -0.362562 -0.368121 -0.412356 -0.362562 -0.406358 -0.358734 -0.389573 -0.352945 -0.383468 -0.389573 -0.412163 -0.383468 -0.405724 -0.352945 -0.383468 -0.347467 -0.377407 -0.383468 -0.405724 -0.377407 -0.39935 -0.412163 -0.425928 -0.405724 -0.41929 -0.425928 -0.430552 -0.41929 -0.423855 -0.405724 -0.41929 -0.39935 -0.412812 -0.41929 -0.423855 -0.412812 -0.417265 0.317331 0.24435 0.312372 0.240536 0.24435 0.165833 0.240536 0.163252 -0.347467 -0.377407 -0.34202 -0.37149 -0.377407 -0.39935 -0.37149 -0.392791 -0.34202 -0.37149 -0.336654 -0.365669 -0.37149 -0.392791 -0.365669 -0.386935 -0.304664 -0.40929 -0.300076 -0.403123 -0.300076 -0.403123 -0.295747 -0.397057 -0.295747 -0.397057 -0.291359 -0.391048 -0.291359 -0.391048 -0.28707 -0.385418 -0.28707 -0.385418 -0.282857 -0.379601 -0.385418 -0.475403 -0.379601 -0.468121 -0.282857 -0.379601 -0.278683 -0.373905 -0.379601 -0.468121 -0.373905 -0.461055 -0.278683 -0.373905 -0.274578 -0.368316 -0.373905 -0.461055 -0.368316 -0.454108 -0.274578 -0.368316 -0.270545 -0.362823 -0.368316 -0.454108 -0.362823 -0.447281 -0.445419 -0.397403 -0.438569 -0.391383 -0.397403 -0.340925 -0.391383 -0.33582 -0.438569 -0.391383 -0.431887 -0.385432 -0.391383 -0.33582 -0.385432 -0.330733 0.221079 0.267252 0.217793 0.263164 0.217793 0.263164 0.214413 0.259238 0.263164 0.30284 0.259238 0.298196 -0.340925 -0.277314 -0.33582 -0.273087 -0.277314 -0.207677 -0.273087 -0.204552 -0.33582 -0.273087 -0.330733 -0.26897 -0.273087 -0.204552 -0.26897 -0.201427 -0.431887 -0.385432 -0.425293 -0.379564 -0.385432 -0.330733 -0.379564 -0.325713 -0.425293 -0.379564 -0.418795 -0.373779 -0.379564 -0.325713 -0.373779 -0.320766 0.267249 0.22108 0.263164 0.217794 0.302839 0.263164 0.298195 0.259237 0.263164 0.217794 0.259237 0.214414 -0.330733 -0.26897 -0.325713 -0.264916 -0.26897 -0.201427 -0.264916 -0.198501 -0.325713 -0.264916 -0.320766 -0.260891 -0.264916 -0.198501 -0.260891 -0.195575 -0.418795 -0.373779 -0.412353 -0.368118 -0.373779 -0.320766 -0.368118 -0.315885 -0.412353 -0.368118 -0.406355 -0.36256 -0.368118 -0.315885 -0.36256 -0.311073 -0.320766 -0.260891 -0.315885 -0.256924 -0.260891 -0.195575 -0.256924 -0.192359 -0.315885 -0.256924 -0.311073 -0.252946 0.25369 0.321723 0.249609 0.316603 0.321723 0.382704 0.316603 0.376551 0.249609 0.316603 0.245608 0.311585 0.316603 0.376551 0.311585 0.370819 0.245608 0.311585 0.241679 0.30667 0.311585 0.370819 0.30667 0.364933 0.241679 0.30667 0.237793 0.30184 0.30667 0.364933 0.30184 0.359204 0.302519 0.36566 0.297772 0.359903 0.36566 0.420951 0.359903 0.414105 0.297772 0.359903 0.293103 0.354239 0.359903 0.414105 0.354239 0.407686 0.293103 0.354239 0.288512 0.348698 0.354239 0.407686 0.348698 0.401306 0.288512 0.348698 0.284003 0.343241 0.348698 0.401306 0.343241 0.395023 0.179578 0.264418 0.176788 0.260221 0.264418 0.343368 0.260221 0.337988 0.176788 0.260221 0.173999 0.256201 0.260221 0.337988 0.256201 0.332692 0.284003 0.343241 0.279541 0.337926 0.343241 0.395023 0.337926 0.388799 0.279541 0.337926 0.275332 0.332707 0.337926 0.388799 0.332707 0.382987 0.275332 0.332707 0.271031 0.327575 0.332707 0.382987 0.327575 0.37703 0.271031 0.327575 0.26682 0.322406 0.327575 0.37703 0.322406 0.371184 0.343372 0.264421 0.337993 0.260225 0.264421 0.17958 0.260225 0.176791 0.337993 0.260225 0.332697 0.256205 0.260225 0.176791 0.256205 0.174001 0.382987 0.425039 0.37703 0.418267 0.425039 0.457529 0.418267 0.450327 0.37703 0.418267 0.371184 0.411786 0.418267 0.450327 0.411786 0.443309 -0.438753 -0.414667 -0.431634 -0.408262 -0.414667 -0.381872 -0.408262 -0.375913 -0.431634 -0.408262 -0.425273 -0.40194 -0.408262 -0.375913 -0.40194 -0.370087 -0.444328 -0.439592 -0.437387 -0.432679 -0.439592 -0.425273 -0.432679 -0.41869 -0.437387 -0.432679 -0.430552 -0.425929 -0.432679 -0.41869 -0.425929 -0.412164 -0.425273 -0.40194 -0.41869 -0.395747 -0.40194 -0.370087 -0.395747 -0.364358 -0.41869 -0.395747 -0.412164 -0.389575 -0.395747 -0.364358 -0.389575 -0.358737 -0.381872 -0.340809 -0.375913 -0.335497 -0.340809 -0.292381 -0.335497 -0.287898 -0.375913 -0.335497 -0.370087 -0.330296 -0.335497 -0.287898 -0.330296 -0.283442 -0.370087 -0.330296 -0.364358 -0.325179 -0.330296 -0.283442 -0.325179 -0.279046 -0.364358 -0.325179 -0.358737 -0.320162 -0.325179 -0.279046 -0.320162 -0.27468 0.322187 0.389518 0.317324 0.383434 0.389518 0.448292 0.383434 0.441165 0.317324 0.383434 0.312365 0.377445 0.383434 0.441165 0.377445 0.434492 0.312365 0.377445 0.307302 0.371537 0.377445 0.434492 0.371537 0.427641 0.307302 0.371537 0.302519 0.36566 0.371537 0.427641 0.36566 0.420951 0.434492 0.482075 0.427641 0.474382 0.427641 0.474382 0.420951 0.467052 -0.430552 -0.425929 -0.423855 -0.419291 -0.425929 -0.412164 -0.419291 -0.405726 -0.423855 -0.419291 -0.417265 -0.412813 -0.419291 -0.405726 -0.412813 -0.399352 -0.412164 -0.389575 -0.405726 -0.38347 -0.389575 -0.358737 -0.38347 -0.352949 -0.405726 -0.38347 -0.399352 -0.37741 -0.38347 -0.352949 -0.37741 -0.347472 -0.399352 -0.37741 -0.392794 -0.371494 -0.37741 -0.347472 -0.371494 -0.342025 -0.392794 -0.371494 -0.386938 -0.365673 -0.371494 -0.342025 -0.365673 -0.336659 0.464315 0.4083 0.456808 0.401543 0.456808 0.401543 0.449637 0.395256 0.421798 0.370809 0.415273 0.364925 0.456514 0.415273 0.449193 0.408634 0.415273 0.364925 0.408634 0.359198 0.449193 0.408634 0.442091 0.402139 0.408634 0.359198 0.402139 0.353318 0.442091 0.402139 0.435121 0.395769 0.402139 0.353318 0.395769 0.347779 0.301831 0.237782 0.296852 0.233966 0.296852 0.233966 0.292194 0.230216 0.435121 0.395769 0.428282 0.389565 0.395769 0.347779 0.389565 0.342255 0.428282 0.389565 0.42157 0.38347 0.389565 0.342255 0.38347 0.337063 0.292194 0.230216 0.287534 0.226586 0.287534 0.226586 0.283186 0.223019 0.370819 0.421807 0.364933 0.415279 0.364933 0.415279 0.359204 0.408636 0.415279 0.456519 0.408636 0.449192 0.359204 0.408636 0.353322 0.402136 0.408636 0.449192 0.402136 0.44208 0.353322 0.402136 0.347787 0.395758 0.402136 0.44208 0.395758 0.435092 0.347787 0.395758 0.342275 0.389585 0.395758 0.435092 0.389585 0.428178 0.342275 0.389585 0.337096 0.38353 0.389585 0.428178 0.38353 0.421752 -0.0706334 -0.17244 -0.0697692 -0.170001 -0.17244 -0.270545 -0.170001 -0.266582 -0.0697692 -0.170001 -0.0689023 -0.167621 -0.170001 -0.266582 -0.167621 -0.262705 -0.0689023 -0.167621 -0.0680494 -0.165133 -0.0680494 -0.165133 -0.0672086 -0.162835 -0.270545 -0.362823 -0.266582 -0.357423 -0.362823 -0.447281 -0.357423 -0.440566 -0.266582 -0.357423 -0.262705 -0.352094 -0.357423 -0.440566 -0.352094 -0.433956 -0.274675 -0.320158 -0.270365 