# vtk DataFile Version 3.0
#This file was generated by the deal.II library on 2018/12/4 at 0:47:16
ASCII
DATASET UNSTRUCTURED_GRID

POINTS 22816 double
0.3125 0.5625 0
0.375 0.5625 0
0.3125 0.625 0
0.375 0.625 0
0.625 0.5625 0
0.6875 0.5625 0
0.625 0.625 0
0.6875 0.625 0
0.3125 0.8125 0
0.375 0.8125 0
0.3125 0.875 0
0.375 0.875 0
0.3125 0.875 0
0.375 0.875 0
0.3125 0.9375 0
0.375 0.9375 0
0.625 0.8125 0
0.6875 0.8125 0
0.625 0.875 0
0.6875 0.875 0
0.625 0.875 0
0.6875 0.875 0
0.625 0.9375 0
0.6875 0.9375 0
0.3125 0 0
0.34375 0 0
0.3125 0.03125 0
0.34375 0.03125 0
0.34375 0 0
0.375 0 0
0.34375 0.03125 0
0.375 0.03125 0
0.3125 0.03125 0
0.34375 0.03125 0
0.3125 0.0625 0
0.34375 0.0625 0
0.28125 0.0625 0
0.3125 0.0625 0
0.28125 0.09375 0
0.3125 0.09375 0
0.28125 0.09375 0
0.3125 0.09375 0
0.28125 0.125 0
0.3125 0.125 0
0.375 0.34375 0
0.40625 0.34375 0
0.375 0.375 0
0.40625 0.375 0
0 0.0625 0
0.03125 0.0625 0
0 0.09375 0
0.03125 0.09375 0
0 0.09375 0
0.03125 0.09375 0
0 0.125 0
0.03125 0.125 0
0.6875 0.0625 0
0.71875 0.0625 0
0.6875 0.09375 0
0.71875 0.09375 0
0.6875 0.09375 0
0.71875 0.09375 0
0.6875 0.125 0
0.71875 0.125 0
0.3125 0.0625 0
0.34375 0.0625 0
0.3125 0.09375 0
0.34375 0.09375 0
0.3125 0.09375 0
0.34375 0.09375 0
0.3125 0.125 0
0.34375 0.125 0
0.59375 0.3125 0
0.625 0.3125 0
0.59375 0.34375 0
0.625 0.34375 0
0.59375 0.34375 0
0.625 0.34375 0
0.59375 0.375 0
0.625 0.375 0
0.25 0.125 0
0.28125 0.125 0
0.25 0.15625 0
0.28125 0.15625 0
0.28125 0.125 0
0.3125 0.125 0
0.28125 0.15625 0
0.3125 0.15625 0
0.28125 0.15625 0
0.3125 0.15625 0
0.28125 0.1875 0
0.3125 0.1875 0
0.28125 0.1875 0
0.3125 0.1875 0
0.28125 0.21875 0
0.3125 0.21875 0
0.28125 0.21875 0
0.3125 0.21875 0
0.28125 0.25 0
0.3125 0.25 0
0.625 0 0
0.65625 0 0
0.625 0.03125 0
0.65625 0.03125 0
0.65625 0 0
0.6875 0 0
0.65625 0.03125 0
0.6875 0.03125 0
0.65625 0.03125 0
0.6875 0.03125 0
0.65625 0.0625 0
0.6875 0.0625 0
0.28125 0.25 0
0.3125 0.25 0
0.28125 0.28125 0
0.3125 0.28125 0
0.28125 0.28125 0
0.3125 0.28125 0
0.28125 0.3125 0
0.3125 0.3125 0
0.28125 0.3125 0
0.3125 0.3125 0
0.28125 0.34375 0
0.3125 0.34375 0
0.28125 0.34375 0
0.3125 0.34375 0
0.28125 0.375 0
0.3125 0.375 0
0.6875 0.125 0
0.71875 0.125 0
0.6875 0.15625 0
0.71875 0.15625 0
0.71875 0.125 0
0.75 0.125 0
0.71875 0.15625 0
0.75 0.15625 0
0.6875 0.15625 0
0.71875 0.15625 0
0.6875 0.1875 0
0.71875 0.1875 0
0.6875 0.1875 0
0.71875 0.1875 0
0.6875 0.21875 0
0.71875 0.21875 0
0.6875 0.21875 0
0.71875 0.21875 0
0.6875 0.25 0
0.71875 0.25 0
0.96875 0.0625 0
1 0.0625 0
0.96875 0.09375 0
1 0.09375 0
0.96875 0.09375 0
1 0.09375 0
0.96875 0.125 0
1 0.125 0
0.6875 0.25 0
0.71875 0.25 0
0.6875 0.28125 0
0.71875 0.28125 0
0.6875 0.28125 0
0.71875 0.28125 0
0.6875 0.3125 0
0.71875 0.3125 0
0.6875 0.3125 0
0.71875 0.3125 0
0.6875 0.34375 0
0.71875 0.34375 0
0.6875 0.34375 0
0.71875 0.34375 0
0.6875 0.375 0
0.71875 0.375 0
0.28125 0.375 0
0.3125 0.375 0
0.28125 0.40625 0
0.3125 0.40625 0
0.28125 0.40625 0
0.3125 0.40625 0
0.28125 0.4375 0
0.3125 0.4375 0
0.65625 0.0625 0
0.6875 0.0625 0
0.65625 0.09375 0
0.6875 0.09375 0
0.65625 0.09375 0
0.6875 0.09375 0
0.65625 0.125 0
0.6875 0.125 0
0.375 0.5 0
0.40625 0.5 0
0.375 0.53125 0
0.40625 0.53125 0
0.375 0.53125 0
0.40625 0.53125 0
0.375 0.5625 0
0.40625 0.5625 0
0.375 0.5625 0
0.40625 0.5625 0
0.375 0.59375 0
0.40625 0.59375 0
0.375 0.59375 0
0.40625 0.59375 0
0.375 0.625 0
0.40625 0.625 0
0.375 0.375 0
0.40625 0.375 0
0.375 0.40625 0
0.40625 0.40625 0
0.59375 0.375 0
0.625 0.375 0
0.59375 0.40625 0
0.625 0.40625 0
0.6875 0.375 0
0.71875 0.375 0
0.6875 0.40625 0
0.71875 0.40625 0
0.6875 0.40625 0
0.71875 0.40625 0
0.6875 0.4375 0
0.71875 0.4375 0
0 0.3125 0
0.03125 0.3125 0
0 0.34375 0
0.03125 0.34375 0
0 0.34375 0
0.03125 0.34375 0
0 0.375 0
0.03125 0.375 0
0.03125 0.34375 0
0.0625 0.34375 0
0.03125 0.375 0
0.0625 0.375 0
0.59375 0.5 0
0.625 0.5 0
0.59375 0.53125 0
0.625 0.53125 0
0.59375 0.53125 0
0.625 0.53125 0
0.59375 0.5625 0
0.625 0.5625 0
0.59375 0.5625 0
0.625 0.5625 0
0.59375 0.59375 0
0.625 0.59375 0
0.59375 0.59375 0
0.625 0.59375 0
0.59375 0.625 0
0.625 0.625 0
0.3125 0.125 0
0.34375 0.125 0
0.3125 0.15625 0
0.34375 0.15625 0
0.3125 0.15625 0
0.34375 0.15625 0
0.3125 0.1875 0
0.34375 0.1875 0
0.96875 0.3125 0
1 0.3125 0
0.96875 0.34375 0
1 0.34375 0
0.9375 0.34375 0
0.96875 0.34375 0
0.9375 0.375 0
0.96875 0.375 0
0.96875 0.34375 0
1 0.34375 0
0.96875 0.375 0
1 0.375 0
0.65625 0.125 0
0.6875 0.125 0
0.65625 0.15625 0
0.6875 0.15625 0
0.65625 0.15625 0
0.6875 0.15625 0
0.65625 0.1875 0
0.6875 0.1875 0
0.65625 0.1875 0
0.6875 0.1875 0
0.65625 0.21875 0
0.6875 0.21875 0
0.65625 0.21875 0
0.6875 0.21875 0
0.65625 0.25 0
0.6875 0.25 0
0.65625 0.25 0
0.6875 0.25 0
0.65625 0.28125 0
0.6875 0.28125 0
0.625 0.28125 0
0.65625 0.28125 0
0.625 0.3125 0
0.65625 0.3125 0
0.65625 0.28125 0
0.6875 0.28125 0
0.65625 0.3125 0
0.6875 0.3125 0
0 0.625 0
0.03125 0.625 0
0 0.65625 0
0.03125 0.65625 0
0.03125 0.625 0
0.0625 0.625 0
0.03125 0.65625 0
0.0625 0.65625 0
0 0.65625 0
0.03125 0.65625 0
0 0.6875 0
0.03125 0.6875 0
0.03125 0.65625 0
0.0625 0.65625 0
0.03125 0.6875 0
0.0625 0.6875 0
0 0.1875 0
0.03125 0.1875 0
0 0.21875 0
0.03125 0.21875 0
0.03125 0.1875 0
0.0625 0.1875 0
0.03125 0.21875 0
0.0625 0.21875 0
0 0.21875 0
0.03125 0.21875 0
0 0.25 0
0.03125 0.25 0
0.03125 0.21875 0
0.0625 0.21875 0
0.03125 0.25 0
0.0625 0.25 0
0.0625 0.71875 0
0.09375 0.71875 0
0.0625 0.75 0
0.09375 0.75 0
0.96875 0.625 0
1 0.625 0
0.96875 0.65625 0
1 0.65625 0
0.9375 0.65625 0
0.96875 0.65625 0
0.9375 0.6875 0
0.96875 0.6875 0
0.96875 0.65625 0
1 0.65625 0
0.96875 0.6875 0
1 0.6875 0
0.90625 0.71875 0
0.9375 0.71875 0
0.90625 0.75 0
0.9375 0.75 0
0.9375 0.1875 0
0.96875 0.1875 0
0.9375 0.21875 0
0.96875 0.21875 0
0.96875 0.1875 0
1 0.1875 0
0.96875 0.21875 0
1 0.21875 0
0.9375 0.21875 0
0.96875 0.21875 0
0.9375 0.25 0
0.96875 0.25 0
0.96875 0.21875 0
1 0.21875 0
0.96875 0.25 0
1 0.25 0
0 0.4375 0
0.03125 0.4375 0
0 0.46875 0
0.03125 0.46875 0
0.03125 0.4375 0
0.0625 0.4375 0
0.03125 0.46875 0
0.0625 0.46875 0
0 0.46875 0
0.03125 0.46875 0
0 0.5 0
0.03125 0.5 0
0.9375 0.4375 0
0.96875 0.4375 0
0.9375 0.46875 0
0.96875 0.46875 0
0.96875 0.4375 0
1 0.4375 0
0.96875 0.46875 0
1 0.46875 0
0.96875 0.46875 0
1 0.46875 0
0.96875 0.5 0
1 0.5 0
0 0.5625 0
0.03125 0.5625 0
0 0.59375 0
0.03125 0.59375 0
0 0.59375 0
0.03125 0.59375 0
0 0.625 0
0.03125 0.625 0
0.96875 0.5625 0
1 0.5625 0
0.96875 0.59375 0
1 0.59375 0
0.96875 0.59375 0
1 0.59375 0
0.96875 0.625 0
1 0.625 0
0.6875 0.875 0
0.71875 0.875 0
0.6875 0.90625 0
0.71875 0.90625 0
0.71875 0.875 0
0.75 0.875 0
0.71875 0.90625 0
0.75 0.90625 0
0.6875 0.90625 0
0.71875 0.90625 0
0.6875 0.9375 0
0.71875 0.9375 0
0.71875 0.90625 0
0.75 0.90625 0
0.71875 0.9375 0
0.75 0.9375 0
0 0.25 0
0.03125 0.25 0
0 0.28125 0
0.03125 0.28125 0
0 0.28125 0
0.03125 0.28125 0
0 0.3125 0
0.03125 0.3125 0
0.3125 0.1875 0
0.34375 0.1875 0
0.3125 0.21875 0
0.34375 0.21875 0
0.3125 0.21875 0
0.34375 0.21875 0
0.3125 0.25 0
0.34375 0.25 0
0.0625 0.875 0
0.09375 0.875 0
0.0625 0.90625 0
0.09375 0.90625 0
0.0625 0.90625 0
0.09375 0.90625 0
0.0625 0.9375 0
0.09375 0.9375 0
0.96875 0.25 0
1 0.25 0
0.96875 0.28125 0
1 0.28125 0
0.96875 0.28125 0
1 0.28125 0
0.96875 0.3125 0
1 0.3125 0
0.0625 0.9375 0
0.09375 0.9375 0
0.0625 0.96875 0
0.09375 0.96875 0
0.0625 0.96875 0
0.09375 0.96875 0
0.0625 1 0
0.09375 1 0
0.09375 0.96875 0
0.125 0.96875 0
0.09375 1 0
0.125 1 0
0.75 0.90625 0
0.78125 0.90625 0
0.75 0.9375 0
0.78125 0.9375 0
0.75 0.9375 0
0.78125 0.9375 0
0.75 0.96875 0
0.78125 0.96875 0
0.75 0.96875 0
0.78125 0.96875 0
0.75 1 0
0.78125 1 0
0.90625 0.875 0
0.9375 0.875 0
0.90625 0.90625 0
0.9375 0.90625 0
0.90625 0.90625 0
0.9375 0.90625 0
0.90625 0.9375 0
0.9375 0.9375 0
0.3125 0.25 0
0.34375 0.25 0
0.3125 0.28125 0
0.34375 0.28125 0
0.3125 0.28125 0
0.34375 0.28125 0
0.3125 0.3125 0
0.34375 0.3125 0
0.90625 0.9375 0
0.9375 0.9375 0
0.90625 0.96875 0
0.9375 0.96875 0
0.875 0.96875 0
0.90625 0.96875 0
0.875 1 0
0.90625 1 0
0.90625 0.96875 0
0.9375 0.96875 0
0.90625 1 0
0.9375 1 0
0.3125 0.3125 0
0.34375 0.3125 0
0.3125 0.34375 0
0.34375 0.34375 0
0.34375 0.3125 0
0.375 0.3125 0
0.34375 0.34375 0
0.375 0.34375 0
0.3125 0.34375 0
0.34375 0.34375 0
0.3125 0.375 0
0.34375 0.375 0
0.34375 0.34375 0
0.375 0.34375 0
0.34375 0.375 0
0.375 0.375 0
0.625 0.3125 0
0.65625 0.3125 0
0.625 0.34375 0
0.65625 0.34375 0
0.65625 0.3125 0
0.6875 0.3125 0
0.65625 0.34375 0
0.6875 0.34375 0
0.625 0.34375 0
0.65625 0.34375 0
0.625 0.375 0
0.65625 0.375 0
0.65625 0.34375 0
0.6875 0.34375 0
0.65625 0.375 0
0.6875 0.375 0
0.3125 0.375 0
0.34375 0.375 0
0.3125 0.40625 0
0.34375 0.40625 0
0.3125 0.40625 0
0.34375 0.40625 0
0.3125 0.4375 0
0.34375 0.4375 0
0.28125 0.4375 0
0.3125 0.4375 0
0.28125 0.46875 0
0.3125 0.46875 0
0.28125 0.46875 0
0.3125 0.46875 0
0.28125 0.5 0
0.3125 0.5 0
0.3125 0.4375 0
0.34375 0.4375 0
0.3125 0.46875 0
0.34375 0.46875 0
0.3125 0.46875 0
0.34375 0.46875 0
0.3125 0.5 0
0.34375 0.5 0
0.3125 0.5 0
0.34375 0.5 0
0.3125 0.53125 0
0.34375 0.53125 0
0.3125 0.53125 0
0.34375 0.53125 0
0.3125 0.5625 0
0.34375 0.5625 0
0.34375 0.53125 0
0.375 0.53125 0
0.34375 0.5625 0
0.375 0.5625 0
0.25 0.5625 0
0.28125 0.5625 0
0.25 0.59375 0
0.28125 0.59375 0
0.28125 0.5625 0
0.3125 0.5625 0
0.28125 0.59375 0
0.3125 0.59375 0
0.25 0.59375 0
0.28125 0.59375 0
0.25 0.625 0
0.28125 0.625 0
0.28125 0.59375 0
0.3125 0.59375 0
0.28125 0.625 0
0.3125 0.625 0
0.375 0.625 0
0.40625 0.625 0
0.375 0.65625 0
0.40625 0.65625 0
0.375 0.65625 0
0.40625 0.65625 0
0.375 0.6875 0
0.40625 0.6875 0
0.375 0.6875 0
0.40625 0.6875 0
0.375 0.71875 0
0.40625 0.71875 0
0.375 0.71875 0
0.40625 0.71875 0
0.375 0.75 0
0.40625 0.75 0
0 0.75 0
0.03125 0.75 0
0 0.78125 0
0.03125 0.78125 0
0.03125 0.75 0
0.0625 0.75 0
0.03125 0.78125 0
0.0625 0.78125 0
0 0.78125 0
0.03125 0.78125 0
0 0.8125 0
0.03125 0.8125 0
0.03125 0.78125 0
0.0625 0.78125 0
0.03125 0.8125 0
0.0625 0.8125 0
0.0625 0.75 0
0.09375 0.75 0
[...]
POINT_DATA 22816
SCALARS U double 1
LOOKUP_TABLE default
0.0845658 -0.185838 0.0794838 -0.17451 -0.185836 0.084564 -0.174517 0.0794703 0.0670277 -0.143537 0.0639971 -0.133805 0.0639971 -0.133805 0.0612399 -0.12471 -0.143577 0.0669762 -0.133906 0.0639514 -0.133906 0.0639514 -0.124881 0.0612645 0.160367 -0.0805713 0.154618 -0.0787377 -0.0805713 -0.31457 -0.0787377 -0.305595 0.154618 -0.0787377 0.149807 -0.0764465 0.363238 0.149807 0.350901 0.144603 0.350901 0.144603 0.340401 0.139553 -0.228768 -0.375508 -0.222156 -0.36398 0 0.224009 0 0.216817 0 0.216817 0 0.210088 0.149818 0.363246 0.144618 0.350911 0.144618 0.350911 0.139568 0.340411 0.149807 -0.0764465 0.144603 -0.0747328 0.144603 -0.0747328 0.139553 -0.0730496 -0.386771 -0.235429 -0.375114 -0.228589 -0.375114 -0.228589 -0.363895 -0.222052 0.511542 0.340401 0.495086 0.3292 0.340401 0.139553 0.3292 0.134576 0.3292 0.134576 0.317392 0.129651 0.317392 0.129651 0.307163 0.124919 0.307163 0.124919 0.297182 0.120502 -0.31457 -0.0805713 -0.305583 -0.0787288 -0.0805713 0.160367 -0.0787288 0.154624 -0.0787288 0.154624 -0.0764294 0.149818 0.297182 0.120502 0.287486 0.11619 0.287486 0.11619 0.278067 0.112007 0.278067 0.112007 0.268946 0.107965 0.268946 0.107965 0.260217 0.104195 0.139568 0.340411 0.134593 0.329212 0.340411 0.51155 0.329212 0.495094 0.134593 0.329212 0.129671 0.317404 0.129671 0.317404 0.124948 0.307168 0.124948 0.307168 0.120479 0.297178 0.22401 2.83705e-16 0.216818 2.74976e-16 0.216818 2.74976e-16 0.21009 2.66516e-16 0.120479 0.297178 0.116153 0.28747 0.116153 0.28747 0.111954 0.278054 0.111954 0.278054 0.107966 0.268942 0.107966 0.268942 0.104209 0.260225 0.260217 0.104195 0.251817 0.10062 0.251817 0.10062 0.243697 0.0972157 -0.0764294 0.149818 -0.0747098 0.144618 -0.0747098 0.144618 -0.0730264 0.139568 -0.197102 -0.322532 -0.191158 -0.31265 -0.191158 -0.31265 -0.185838 -0.303261 -0.185838 -0.303261 -0.180174 -0.294034 -0.180174 -0.294034 -0.17451 -0.284826 -0.222156 -0.36398 -0.215562 -0.353279 -0.363895 -0.222052 -0.353226 -0.21551 0.104209 0.260225 0.100643 0.251829 0.100643 0.251829 0.0972352 0.243708 0 0.173128 0 0.168285 0 0.168285 0 0.162895 0.168285 0.322007 0.162895 0.311635 -0.322521 -0.197089 -0.312644 -0.191151 -0.312644 -0.191151 -0.303259 -0.185836 -0.303259 -0.185836 -0.294035 -0.180177 -0.294035 -0.180177 -0.284831 -0.174517 0.139553 -0.0730496 0.134576 -0.0714485 0.134576 -0.0714485 0.129651 -0.0699157 0.173137 2.2095e-16 0.168297 2.14152e-16 0.322028 0.168297 0.311666 0.162912 0.168297 2.14152e-16 0.162912 2.07563e-16 -0.0730264 0.139568 -0.0714294 0.134593 -0.0714294 0.134593 -0.0698908 0.129671 -0.0698908 0.129671 -0.0683549 0.124948 -0.0683549 0.124948 -0.0667232 0.120479 -0.0667232 0.120479 -0.0656294 0.116153 -0.241765 -0.0656294 -0.235429 -0.0641739 -0.0656294 0.116153 -0.0641739 0.111954 0 0.126658 0 0.122628 0.126658 0.242462 0.122628 0.234279 0 0.122628 0 0.118851 0.122628 0.234279 0.118851 0.227329 0 0.197599 0 0.19114 0.197599 0.377725 0.19114 0.365572 0 0.19114 0 0.185161 0.19114 0.365572 0.185161 0.354242 0.2205 0.306935 0.213985 0.297401 0.126223 1.6165e-16 0.122737 1.56677e-16 0.234771 0.122737 0.227441 0.118951 0.122737 1.56677e-16 0.118951 1.51856e-16 0.306981 0.220555 0.29742 0.214008 0.37773 0.197602 0.365578 0.191144 0.197602 2.50369e-16 0.191144 2.42666e-16 0.365578 0.191144 0.35425 0.185165 0.191144 2.42666e-16 0.185165 2.352e-16 0 0.152787 0 0.147943 0.152787 0.292318 0.147943 0.283341 0 0.147943 0 0.143406 0.292382 0.152822 0.283427 0.148002 0.152822 1.94987e-16 0.148002 1.88988e-16 0.148002 1.88988e-16 0.143412 1.83174e-16 0 0.13494 0 0.130222 0 0.130222 0 0.126658 0.134832 1.72076e-16 0.130242 1.66782e-16 0.130242 1.66782e-16 0.126223 1.6165e-16 0.0639514 0.158611 0.0626079 0.154418 0.158611 0.239102 0.154418 0.232947 0.0626079 0.154418 0.0612645 0.150681 0.154418 0.232947 0.150681 0.226381 0 0.185161 0 0.178735 0 0.178735 0 0.173128 0.129651 -0.0699157 0.124919 -0.0684017 0.124919 -0.0684017 0.120502 -0.0668774 0.189306 0.263149 0.183328 0.255272 0.183328 0.255272 0.177972 0.247556 0.185165 2.352e-16 0.178741 2.27963e-16 0.178741 2.27963e-16 0.173137 2.2095e-16 0.177972 0.247556 0.173096 0.240902 0.173096 0.240902 0.168005 0.233759 0.240902 0.288014 0.233759 0.279382 0.232947 0.291141 0.226381 0.282494 0.226381 0.282494 0.219686 0.274428 0.219686 0.274428 0.21383 0.266694 0.26315 0.189306 0.255276 0.18333 0.255276 0.18333 0.247562 0.177974 0.120502 -0.0668774 0.11619 -0.0652691 0.11619 -0.0652691 0.112007 -0.0641966 0.247562 0.177974 0.240906 0.173098 0.288024 0.240906 0.279382 0.233759 0.240906 0.173098 0.233759 0.168005 0.112007 -0.0641966 0.107965 -0.0627685 -0.0641966 -0.234932 -0.0627685 -0.228768 0.107965 -0.0627685 0.104195 -0.0614328 -0.0627685 -0.228768 -0.0614328 -0.222156 -0.235429 -0.0641739 -0.228589 -0.0627906 -0.0641739 0.111954 -0.0627906 0.107966 -0.228589 -0.0627906 -0.222052 -0.0613837 -0.0627906 0.107966 -0.0613837 0.104209 0.104195 -0.0614328 0.10062 -0.0595669 0.10062 -0.0595669 0.0972157 -0.0580475 0.243697 0.0972157 0.235822 0.0939302 0.235822 0.0939302 0.228432 0.0907876 0.0972157 -0.0580475 0.0939302 -0.0565496 0.0939302 -0.0565496 0.0907876 -0.0550895 0.0907876 -0.0550895 0.0874681 -0.0537931 0.0874681 -0.0537931 0.0845658 -0.050636 -0.0537931 -0.191158 -0.050636 -0.185838 0.324593 0.214636 0.315142 0.207686 0.214636 0.0845658 0.207686 0.0820248 0.315142 0.207686 0.305256 0.201692 0.207686 0.0820248 0.201692 0.0794838 -0.17451 -0.284826 -0.168522 -0.275794 -0.168522 -0.275794 -0.163273 -0.267023 -0.163273 -0.267023 -0.158131 -0.258405 -0.158131 -0.258405 -0.153075 -0.250899 0 0.111889 0 0.108405 0.111889 0.213985 0.108405 0.207386 0 0.108405 0 0.105106 0.108405 0.207386 0.105106 0.201103 0.213985 0.297401 0.207386 0.288372 0.207386 0.288372 0.201103 0.279696 0 0.105106 0 0.10196 0 0.10196 0 0.0989885 0.10196 0.195071 0.0989885 0.189306 0.201103 0.279696 0.195071 0.27131 0.195071 0.27131 0.189306 0.263149 -0.0613837 0.104209 -0.0595275 0.100643 -0.0595275 0.100643 -0.0580202 0.0972352 -0.0580202 0.0972352 -0.056531 0.0939456 -0.056531 0.0939456 -0.0550774 0.0907987 0.0972352 0.243708 0.0939456 0.235833 0.0939456 0.235833 0.0907987 0.228444 0 0.162895 0 0.157731 0.162895 0.311635 0.157731 0.301799 0 0.157731 0 0.152787 0.157731 0.301799 0.152787 0.292318 -0.0550774 0.0907987 -0.0537869 0.0874736 -0.191151 -0.0537869 -0.185836 -0.050636 -0.0537869 0.0874736 -0.050636 0.084564 0.084564 0.21463 0.0820172 0.207671 0.21463 0.324573 0.207671 0.315114 0.0820172 0.207671 0.0794703 0.201673 0.207671 0.315114 0.201673 0.305227 -0.284831 -0.174517 -0.275802 -0.168533 -0.275802 -0.168533 -0.267034 -0.163287 -0.267034 -0.163287 -0.25842 -0.158149 -0.25842 -0.158149 -0.250918 -0.153098 0.29742 0.214008 0.288376 0.207394 0.288376 0.207394 0.279694 0.201104 0.214008 0.111904 0.207394 0.10841 0.111904 1.42656e-16 0.10841 1.38267e-16 0.207394 0.10841 0.201104 0.105108 0.10841 1.38267e-16 0.105108 1.34013e-16 0.279694 0.201104 0.271307 0.195071 0.271307 0.195071 0.26315 0.189306 0.105108 1.34013e-16 0.10196 1.2989e-16 0.195071 0.10196 0.189306 0.0989886 0.10196 1.2989e-16 0.0989886 1.25893e-16 0.311666 0.162912 0.301846 0.157755 0.162912 2.07563e-16 0.157755 2.01177e-16 0.301846 0.157755 0.292382 0.152822 0.157755 2.01177e-16 0.152822 1.94987e-16 0 0.143406 0 0.139092 0.143406 0.274308 0.139092 0.266356 0 0.139092 0 0.13494 0.139092 0.266356 0.13494 0.258075 0.266356 0.370496 0.258075 0.358638 0.258075 0.358638 0.249535 0.347528 0.249535 0.347528 0.242462 0.337074 0.39483 0.315142 0.382138 0.305256 0.382138 0.305256 0.37025 0.295238 0.37025 0.295238 0.358842 0.286389 0.358842 0.286389 0.348052 0.277667 0.348052 0.277667 0.337988 0.270022 0.270022 0.178268 0.261301 0.173042 0.261301 0.173042 0.253812 0.167892 0.173042 0.0693105 0.167892 0.0670277 0.0707974 -0.0427149 0.0693105 -0.0410173 -0.0427149 -0.153075 -0.0410173 -0.148057 0.0693105 -0.0410173 0.0670277 -0.0382545 -0.0410173 -0.148057 -0.0382545 -0.143537 0.253812 0.167892 0.246447 0.163123 0.167892 0.0670277 0.163123 0.0655124 0.246447 0.163123 0.239397 0.158646 0.163123 0.0655124 0.158646 0.0639971 -0.153075 -0.250899 -0.148057 -0.24289 -0.250899 -0.327047 -0.24289 -0.317233 -0.148057 -0.24289 -0.143537 -0.235157 -0.24289 -0.317233 -0.235157 -0.307101 -0.317233 -0.36499 -0.307101 -0.352958 -0.36499 -0.38115 -0.352958 -0.368738 -0.143537 -0.235157 -0.138671 -0.227521 -0.235157 -0.307101 -0.227521 -0.297148 -0.138671 -0.227521 -0.133805 -0.220017 -0.227521 -0.297148 -0.220017 -0.287476 -0.307101 -0.352958 -0.297148 -0.341513 -0.352958 -0.368738 -0.341513 -0.356752 -0.297148 -0.341513 -0.287476 -0.330441 -0.341513 -0.356752 -0.330441 -0.345204 0.239397 0.158646 0.232674 0.154408 0.158646 0.0639971 0.154408 0.0626185 0.232674 0.154408 0.226331 0.15059 0.154408 0.0626185 0.15059 0.0612399 0.0612399 -0.0317353 0.060157 -0.0311477 -0.0317353 -0.12471 -0.0311477 -0.11993 0.060157 -0.0311477 0.0589956 -0.0296405 -0.0311477 -0.11993 -0.0296405 -0.115724 -0.133805 -0.220017 -0.129257 -0.2127 -0.220017 -0.287476 -0.2127 -0.278074 -0.129257 -0.2127 -0.12471 -0.205549 -0.2127 -0.278074 -0.205549 -0.268935 -0.287476 -0.330441 -0.278074 -0.319711 -0.330441 -0.345204 -0.319711 -0.334017 -0.278074 -0.319711 -0.268935 -0.309297 -0.319711 -0.334017 -0.309297 -0.32316 -0.12471 -0.205549 -0.11993 -0.198591 -0.205549 -0.268935 -0.198591 -0.260057 -0.11993 -0.198591 -0.115724 -0.191841 -0.198591 -0.260057 -0.191841 -0.251438 -0.268935 -0.309297 -0.260057 -0.29919 -0.309297 -0.32316 -0.29919 -0.312623 -0.260057 -0.29919 -0.251438 -0.28938 -0.29919 -0.312623 -0.28938 -0.302401 0.315114 0.39478 0.305227 0.382092 0.274641 0.143412 0.266004 0.139064 0.143412 1.83174e-16 0.139064 1.77538e-16 0.266004 0.139064 0.257981 0.134832 0.139064 1.77538e-16 0.134832 1.72076e-16 0.305227 0.382092 0.29521 0.370216 0.29521 0.370216 0.286364 0.358817 0.286364 0.358817 0.277641 0.34803 0.277641 0.34803 0.26999 0.33796 -0.38115 -0.365 -0.368738 -0.352974 -0.365 -0.317252 -0.352974 -0.307131 -0.32706 -0.250918 -0.317252 -0.242916 -0.250918 -0.153098 -0.242916 -0.148087 -0.317252 -0.242916 -0.307131 -0.235197 -0.242916 -0.148087 -0.235197 -0.143577 -0.368738 -0.352974 -0.356752 -0.341541 -0.352974 -0.307131 -0.341541 -0.297199 -0.356752 -0.341541 -0.345204 -0.330491 -0.341541 -0.297199 -0.330491 -0.287566 -0.307131 -0.235197 -0.297199 -0.227585 -0.235197 -0.143577 -0.227585 -0.138741 -0.297199 -0.227585 -0.287566 -0.220124 -0.227585 -0.138741 -0.220124 -0.133906 -0.153098 -0.0427419 -0.148087 -0.041052 -0.0427419 0.0707673 -0.041052 0.0692715 -0.148087 -0.041052 -0.143577 -0.0383003 -0.041052 0.0692715 -0.0383003 0.0669762 0.178236 0.26999 0.172999 0.261258 0.0692715 0.172999 0.0669762 0.167834 0.172999 0.261258 0.167834 0.253747 0.0669762 0.167834 0.0654638 0.163038 0.167834 0.253747 0.163038 0.246346 0.0654638 0.163038 0.0639514 0.158611 0.163038 0.246346 0.158611 0.239102 -0.345204 -0.330491 -0.334017 -0.319781 -0.330491 -0.287566 -0.319781 -0.27824 -0.334017 -0.319781 -0.32316 -0.309326 -0.319781 -0.27824 -0.309326 -0.269176 -0.287566 -0.220124 -0.27824 -0.212896 -0.220124 -0.133906 -0.212896 -0.129394 -0.27824 -0.212896 -0.269176 -0.206121 -0.212896 -0.129394 -0.206121 -0.124881 -0.32316 -0.309326 -0.312623 -0.299193 -0.309326 -0.269176 -0.299193 -0.259817 -0.312623 -0.299193 -0.302401 -0.28938 -0.299193 -0.259817 -0.28938 -0.251438 0.0794838 -0.0475132 0.0772616 -0.0473868 -0.0475132 -0.17451 -0.0473868 -0.168522 0.0772616 -0.0473868 0.0749307 -0.0459212 -0.0473868 -0.168522 -0.0459212 -0.163273 0.0749307 -0.0459212 0.0728044 -0.0443652 -0.0459212 -0.163273 -0.0443652 -0.158131 0.0728044 -0.0443652 0.0707974 -0.0427149 -0.0443652 -0.158131 -0.0427149 -0.153075 -0.174517 -0.0475234 -0.168533 -0.0474005 -0.0475234 0.0794703 -0.0474005 0.0772444 -0.168533 -0.0474005 -0.163287 -0.0459386 -0.0474005 0.0772444 -0.0459386 0.0749104 -0.163287 -0.0459386 -0.158149 -0.0443868 -0.0459386 0.0749104 -0.0443868 0.0727801 -0.158149 -0.0443868 -0.153098 -0.0427419 -0.0443868 0.0727801 -0.0427419 0.0707673 0 0.118851 0 0.114855 0 0.114855 0 0.111889 0.118951 1.51856e-16 0.114891 1.47184e-16 0.114891 1.47184e-16 0.111904 1.42656e-16 -0.124881 -0.0318084 -0.119754 -0.0311504 -0.0318084 0.0612645 -0.0311504 0.0601688 -0.119754 -0.0311504 -0.115724 -0.0296405 -0.0311504 0.0601688 -0.0296405 0.0589956 0 0.0989885 0 0.0957284 0 0.0957284 0 0.0929183 0 0.0929183 0 0.0905042 0 0.0905042 0 0.0877825 0.0905042 0.173096 0.0877825 0.168005 0.0989886 1.25893e-16 0.0957289 1.2202e-16 0.0957289 1.2202e-16 0.0929191 1.18266e-16 0.0929191 1.18266e-16 0.0905047 1.14627e-16 0.173098 0.0905047 0.168005 0.0877825 0.0905047 1.14627e-16 0.0877825 1.111e-16 0.210088 0.309258 0.206417 0.30428 0.309258 0.401856 0.30428 0.395436 0.206417 0.30428 0.203157 0.299326 0.30428 0.395436 0.299326 0.389144 0.75944 0.797378 0.747495 0.784866 0.797378 0.818054 0.784866 0.805174 0.747495 0.784866 0.735764 0.77276 0.784866 0.805174 0.77276 0.792468 0.818054 0.821022 0.805174 0.808007 0.821022 0.806217 0.808007 0.79337 0.805174 0.808007 0.792468 0.795142 0.808007 0.79337 0.795142 0.780724 0.792468 0.795142 0.779517 0.782586 0.795142 0.780724 0.782586 0.768227 0.779517 0.782586 0.767391 0.770484 0.782586 0.768227 0.770484 0.756479 0.690196 0.724835 0.679181 0.713113 0.724835 0.743348 0.713113 0.731512 0.679181 0.713113 0.668385 0.701753 0.713113 0.731512 0.701753 0.719887 0.470686 0.541851 0.463117 0.533223 0.463117 0.533223 0.456134 0.524836 0.668385 0.701753 0.65779 0.690614 0.701753 0.719887 0.690614 0.708454 0.65779 0.690614 0.647389 0.679668 0.690614 0.708454 0.679668 0.697207 0.647389 0.679668 0.637163 0.668907 0.679668 0.697207 0.668907 0.686141 0.637163 0.668907 0.627104 0.658327 0.668907 0.686141 0.658327 0.675257 0.377725 0.456134 0.371648 0.448941 0.456134 0.524836 0.448941 0.516578 0.371648 0.448941 0.365572 0.441809 0.448941 0.516578 0.441809 0.508377 0.365572 0.441809 0.359907 0.434789 0.441809 0.508377 0.434789 0.50027 0.359907 0.434789 0.354242 0.42781 0.434789 0.50027 0.42781 0.492372 0.627104 0.658327 0.617212 0.647949 0.658327 0.675257 0.647949 0.664562 0.617212 0.647949 0.607499 0.637886 0.647949 0.664562 0.637886 0.654082 -0.786617 -0.813115 -0.774613 -0.800765 -0.813115 -0.822012 -0.800765 -0.809551 -0.774613 -0.800765 -0.762822 -0.788692 -0.800765 -0.809551 -0.788692 -0.797299 0.541857 0.470691 0.533229 0.463122 0.533229 0.463122 0.524842 0.45614 0.524842 0.45614 0.516585 0.448947 0.45614 0.37773 0.448947 0.371654 0.516585 0.448947 0.508386 0.441817 0.448947 0.371654 0.441817 0.365578 0.508386 0.441817 0.500279 0.434797 0.441817 0.365578 0.434797 0.359914 0.500279 0.434797 0.492383 0.42782 0.434797 0.359914 0.42782 0.35425 -0.822012 -0.813115 -0.809551 -0.800763 -0.813115 -0.786617 -0.800763 -0.77461 -0.809551 -0.800763 -0.797299 -0.788689 -0.800763 -0.77461 -0.788689 -0.762816 -0.50455 -0.548464 -0.497241 -0.540176 -0.548464 -0.580335 -0.540176 -0.571716 -0.497241 -0.540176 -0.489792 -0.531767 -0.580335 -0.599743 -0.571716 -0.59074 -0.599743 -0.606252 -0.59074 -0.597138 -0.489792 -0.531767 -0.482432 -0.523913 -0.482432 -0.523913 -0.475315 -0.51606 -0.554377 -0.573022 -0.545971 -0.564349 -0.573022 -0.579235 -0.564349 -0.57047 0.354242 0.42781 0.347817 0.420589 0.347817 0.420589 0.342511 0.414121 0.806217 0.821022 0.793371 0.808008 0.821022 0.818054 0.808008 0.805175 0.793371 0.808008 0.780726 0.795144 0.808008 0.805175 0.795144 0.792469 0.818054 0.797378 0.805175 0.784866 0.797378 0.75944 0.784866 0.747495 0.805175 0.784866 0.792469 0.772761 0.784866 0.747495 0.772761 0.735765 0.780726 0.795144 0.768229 0.782588 0.795144 0.792469 0.782588 0.779519 0.768229 0.782588 0.756482 0.770487 0.782588 0.779519 0.770487 0.767394 0.743352 0.724838 0.731516 0.713117 0.724838 0.690199 0.713117 0.679185 0.731516 0.713117 0.719892 0.701757 0.713117 0.679185 0.701757 0.66839 0.719892 0.701757 0.70846 0.690619 0.701757 0.66839 0.690619 0.657796 0.70846 0.690619 0.697213 0.679675 0.690619 0.657796 0.679675 0.647395 0.697213 0.679675 0.686148 0.668914 0.679675 0.647395 0.668914 0.63717 0.686148 0.668914 0.675264 0.658335 0.668914 0.63717 0.658335 0.627111 0.756479 0.726342 0.744037 0.714522 0.726342 0.680247 0.714522 0.669248 0.744037 0.714522 0.73234 0.703069 0.714522 0.669248 0.703069 0.65852 0.680247 0.619407 0.669248 0.609353 0.619407 0.54501 0.609353 0.536084 0.669248 0.609353 0.65852 0.59954 0.609353 0.536084 0.59954 0.527622 0.73234 0.703069 0.720744 0.691858 0.703069 0.65852 0.691858 0.648114 0.720744 0.691858 0.709297 0.680833 0.691858 0.648114 0.680833 0.637491 0.65852 0.59954 0.648114 0.590156 0.59954 0.527622 0.590156 0.518695 0.590156 0.518695 0.580518 0.511542 0.675264 0.658335 0.664571 0.647958 0.658335 0.627111 0.647958 0.61722 0.664571 0.647958 0.654091 0.637895 0.647958 0.61722 0.637895 0.607509 0.42782 0.35425 0.4206 0.347826 0.4206 0.347826 0.414134 0.342522 -0.606252 -0.599758 -0.597138 -0.590754 -0.599758 -0.580371 -0.590754 -0.571747 -0.580371 -0.548537 -0.571747 -0.540236 -0.548537 -0.504702 -0.540236 -0.497366 -0.540236 -0.497366 -0.531794 -0.489808 -0.579235 -0.573024 -0.57047 -0.564346 -0.573024 -0.554379 -0.564346 -0.545963 -0.531794 -0.489808 -0.523908 -0.482407 -0.523908 -0.482407 -0.51604 -0.475269 0 0.105044 0 0.104258 0.105044 0.210088 0.104258 0.206417 0 0.104258 0 0.102649 0.104258 0.206417 0.102649 0.203157 -0.485313 -0.513361 -0.477824 -0.505442 -0.477824 -0.505442 -0.47062 -0.497796 0.709297 0.680833 0.698011 0.669958 0.680833 0.637491 0.669958 0.627437 0.698011 0.669958 0.686888 0.659267 0.669958 0.627437 0.659267 0.617375 0.580518 0.511542 0.571468 0.503314 0.571468 0.503314 0.562128 0.495086 0.686888 0.659267 0.675932 0.648723 0.659267 0.617375 0.648723 0.607418 0.675932 0.648723 0.665093 0.638358 0.648723 0.607418 0.638358 0.597724 0.562128 0.495086 0.552923 0.485873 0.552923 0.485873 0.543895 0.478432 0.387494 0.276928 0.381068 0.272222 0.276928 0.160367 0.272222 0.157492 0.381068 0.272222 0.374675 0.267637 0.272222 0.157492 0.267637 0.154618 0.466406 0.368564 0.458833 0.363238 0.665093 0.638358 0.654424 0.62777 0.654424 0.62777 0.643979 0.617751 0.643979 0.617751 0.633769 0.608304 0.633769 0.608304 0.623773 0.598746 0.608304 0.569666 0.598746 0.560485 0.569666 0.518137 0.560485 0.509849 0.374675 0.267637 0.368564 0.263027 0.267637 0.154618 0.263027 0.152212 0.368564 0.263027 0.363238 0.256523 0.263027 0.152212 0.256523 0.149807 -0.609071 -0.683478 -0.599805 -0.673029 -0.599805 -0.673029 -0.59069 -0.66274 0.458833 0.363238 0.451359 0.35707 0.451359 0.35707 0.444202 0.350901 -0.59069 -0.66274 -0.581796 -0.652564 -0.581796 -0.652564 -0.573084 -0.643118 0 0.102649 0 0.101051 0.102649 0.203157 0.101051 0.199701 0 0.101051 0 0.0987995 0.101051 0.199701 0.0987995 0.197599 -0.573084 -0.643118 -0.564668 -0.633467 0.527622 0.444202 0.518695 0.436637 0.444202 0.350901 0.436637 0.345651 0.518695 0.436637 0.511542 0.425971 0.436637 0.345651 0.425971 0.340401 0.203157 0.299326 0.199701 0.294498 0.299326 0.389144 0.294498 0.382721 0.199701 0.294498 0.197599 0.287662 0.294498 0.382721 0.287662 0.377725 -0.51335 -0.485296 -0.505433 -0.47781 -0.505433 -0.47781 -0.497789 -0.470609 -0.643118 -0.699343 -0.633467 -0.68853 -0.699343 -0.740135 -0.68853 -0.728809 -0.633467 -0.68853 -0.623561 -0.678022 -0.68853 -0.728809 -0.678022 -0.717676 -0.740135 -0.764968 -0.728809 -0.753299 -0.764968 -0.773301 -0.753299 -0.761517 -0.728809 -0.753299 -0.717676 -0.741809 -0.753299 -0.761517 -0.741809 -0.749907 -0.623561 -0.678022 -0.614247 -0.667709 -0.678022 -0.717676 -0.667709 -0.706755 -0.614247 -0.667709 -0.605008 -0.65763 -0.667709 -0.706755 -0.65763 -0.696027 -0.717676 -0.741809 -0.706755 -0.730511 -0.741809 -0.749907 -0.730511 -0.738485 -0.706755 -0.730511 -0.696027 -0.719402 -0.730511 -0.738485 -0.719402 -0.727255 0.465792 0.501561 0.458355 0.493554 0.458355 0.493554 0.451179 0.485833 -0.234932 -0.313758 -0.23185 -0.309082 -0.313758 -0.385893 -0.309082 -0.38025 -0.23185 -0.309082 -0.228768 -0.302138 -0.309082 -0.38025 -0.302138 -0