# vtk DataFile Version 3.0
#This file was generated by the deal.II library on 2018/12/4 at 0:47:15
ASCII
DATASET UNSTRUCTURED_GRID

POINTS 8248 double
0 0.6875 0
0.0625 0.6875 0
0 0.75 0
0.0625 0.75 0
0.9375 0.6875 0
1 0.6875 0
0.9375 0.75 0
1 0.75 0
0.625 0.9375 0
0.6875 0.9375 0
0.625 1 0
0.6875 1 0
0.6875 0.9375 0
0.75 0.9375 0
0.6875 1 0
0.75 1 0
0 0.875 0
0.0625 0.875 0
0 0.9375 0
0.0625 0.9375 0
0 0.9375 0
0.0625 0.9375 0
0 1 0
0.0625 1 0
0.9375 0.875 0
1 0.875 0
0.9375 0.9375 0
1 0.9375 0
0.9375 0.9375 0
1 0.9375 0
0.9375 1 0
1 1 0
0 0.125 0
0.03125 0.125 0
0 0.15625 0
0.03125 0.15625 0
0.03125 0.125 0
0.0625 0.125 0
0.03125 0.15625 0
0.0625 0.15625 0
0 0.15625 0
0.03125 0.15625 0
0 0.1875 0
0.03125 0.1875 0
0.0625 0 0
0.09375 0 0
0.0625 0.03125 0
0.09375 0.03125 0
0.09375 0 0
0.125 0 0
0.09375 0.03125 0
0.125 0.03125 0
0.0625 0.03125 0
0.09375 0.03125 0
0.0625 0.0625 0
0.09375 0.0625 0
0.09375 0.03125 0
0.125 0.03125 0
0.09375 0.0625 0
0.125 0.0625 0
0.0625 0.0625 0
0.09375 0.0625 0
0.0625 0.09375 0
0.09375 0.09375 0
0.09375 0.0625 0
0.125 0.0625 0
0.09375 0.09375 0
0.125 0.09375 0
0.0625 0.09375 0
0.09375 0.09375 0
0.0625 0.125 0
0.09375 0.125 0
0.09375 0.09375 0
0.125 0.09375 0
0.09375 0.125 0
0.125 0.125 0
0.125 0.03125 0
0.15625 0.03125 0
0.125 0.0625 0
0.15625 0.0625 0
0.1875 0 0
0.21875 0 0
0.1875 0.03125 0
0.21875 0.03125 0
0.21875 0 0
0.25 0 0
0.21875 0.03125 0
0.25 0.03125 0
0.1875 0.03125 0
0.21875 0.03125 0
0.1875 0.0625 0
0.21875 0.0625 0
0.21875 0.03125 0
0.25 0.03125 0
0.21875 0.0625 0
0.25 0.0625 0
0.125 0.0625 0
0.15625 0.0625 0
0.125 0.09375 0
0.15625 0.09375 0
0.15625 0.0625 0
0.1875 0.0625 0
0.15625 0.09375 0
0.1875 0.09375 0
0.15625 0.09375 0
0.1875 0.09375 0
0.15625 0.125 0
0.1875 0.125 0
0.0625 0.125 0
0.09375 0.125 0
0.0625 0.15625 0
0.09375 0.15625 0
0.09375 0.125 0
0.125 0.125 0
0.09375 0.15625 0
0.125 0.15625 0
0.09375 0.15625 0
0.125 0.15625 0
0.09375 0.1875 0
0.125 0.1875 0
0.3125 0 0
0.34375 0 0
0.3125 0.03125 0
0.34375 0.03125 0
0.34375 0 0
0.375 0 0
0.34375 0.03125 0
0.375 0.03125 0
0.3125 0.03125 0
0.34375 0.03125 0
0.3125 0.0625 0
0.34375 0.0625 0
0.34375 0.03125 0
0.375 0.03125 0
0.34375 0.0625 0
0.375 0.0625 0
0.15625 0.125 0
0.1875 0.125 0
0.15625 0.15625 0
0.1875 0.15625 0
0.15625 0.15625 0
0.1875 0.15625 0
0.15625 0.1875 0
0.1875 0.1875 0
0.09375 0.1875 0
0.125 0.1875 0
0.09375 0.21875 0
0.125 0.21875 0
0.09375 0.21875 0
0.125 0.21875 0
0.09375 0.25 0
0.125 0.25 0
0.15625 0.1875 0
0.1875 0.1875 0
0.15625 0.21875 0
0.1875 0.21875 0
0.125 0.21875 0
0.15625 0.21875 0
0.125 0.25 0
0.15625 0.25 0
0.15625 0.21875 0
0.1875 0.21875 0
0.15625 0.25 0
0.1875 0.25 0
0.25 0 0
0.28125 0 0
0.25 0.03125 0
0.28125 0.03125 0
0.28125 0 0
0.3125 0 0
0.28125 0.03125 0
0.3125 0.03125 0
0.25 0.03125 0
0.28125 0.03125 0
0.25 0.0625 0
0.28125 0.0625 0
0.28125 0.03125 0
0.3125 0.03125 0
0.28125 0.0625 0
0.3125 0.0625 0
0.25 0.0625 0
0.28125 0.0625 0
0.25 0.09375 0
0.28125 0.09375 0
0.28125 0.0625 0
0.3125 0.0625 0
0.28125 0.09375 0
0.3125 0.09375 0
0.25 0.09375 0
0.28125 0.09375 0
0.25 0.125 0
0.28125 0.125 0
0.28125 0.09375 0
0.3125 0.09375 0
0.28125 0.125 0
0.3125 0.125 0
0.4375 0 0
0.46875 0 0
0.4375 0.03125 0
0.46875 0.03125 0
0.4375 0.03125 0
0.46875 0.03125 0
0.4375 0.0625 0
0.46875 0.0625 0
0.46875 0.03125 0
0.5 0.03125 0
0.46875 0.0625 0
0.5 0.0625 0
0.40625 0.25 0
0.4375 0.25 0
0.40625 0.28125 0
0.4375 0.28125 0
0.40625 0.28125 0
0.4375 0.28125 0
0.40625 0.3125 0
0.4375 0.3125 0
0.4375 0.25 0
0.46875 0.25 0
0.4375 0.28125 0
0.46875 0.28125 0
0.46875 0.25 0
0.5 0.25 0
0.46875 0.28125 0
0.5 0.28125 0
0.4375 0.28125 0
0.46875 0.28125 0
0.4375 0.3125 0
0.46875 0.3125 0
0.46875 0.28125 0
0.5 0.28125 0
0.46875 0.3125 0
0.5 0.3125 0
0.375 0.3125 0
0.40625 0.3125 0
0.375 0.34375 0
0.40625 0.34375 0
0.40625 0.3125 0
0.4375 0.3125 0
0.40625 0.34375 0
0.4375 0.34375 0
0.375 0.34375 0
0.40625 0.34375 0
0.375 0.375 0
0.40625 0.375 0
0.40625 0.34375 0
0.4375 0.34375 0
0.40625 0.375 0
0.4375 0.375 0
0 0 0
0.03125 0 0
0 0.03125 0
0.03125 0.03125 0
0 0.03125 0
0.03125 0.03125 0
0 0.0625 0
0.03125 0.0625 0
0 0.0625 0
0.03125 0.0625 0
0 0.09375 0
0.03125 0.09375 0
0.03125 0.0625 0
0.0625 0.0625 0
0.03125 0.09375 0
0.0625 0.09375 0
0 0.09375 0
0.03125 0.09375 0
0 0.125 0
0.03125 0.125 0
0.03125 0.09375 0
0.0625 0.09375 0
0.03125 0.125 0
0.0625 0.125 0
0.6875 0 0
0.71875 0 0
0.6875 0.03125 0
0.71875 0.03125 0
0.71875 0 0
0.75 0 0
0.71875 0.03125 0
0.75 0.03125 0
0.6875 0.03125 0
0.71875 0.03125 0
0.6875 0.0625 0
0.71875 0.0625 0
0.71875 0.03125 0
0.75 0.03125 0
0.71875 0.0625 0
0.75 0.0625 0
0.6875 0.0625 0
0.71875 0.0625 0
0.6875 0.09375 0
0.71875 0.09375 0
0.71875 0.0625 0
0.75 0.0625 0
0.71875 0.09375 0
0.75 0.09375 0
0.6875 0.09375 0
0.71875 0.09375 0
0.6875 0.125 0
0.71875 0.125 0
0.71875 0.09375 0
0.75 0.09375 0
0.71875 0.125 0
0.75 0.125 0
0.875 0.125 0
0.90625 0.125 0
0.875 0.15625 0
0.90625 0.15625 0
0.90625 0.125 0
0.9375 0.125 0
0.90625 0.15625 0
0.9375 0.15625 0
0.875 0.15625 0
0.90625 0.15625 0
0.875 0.1875 0
0.90625 0.1875 0
0.9375 0.125 0
0.96875 0.125 0
0.9375 0.15625 0
0.96875 0.15625 0
0.96875 0.125 0
1 0.125 0
0.96875 0.15625 0
1 0.15625 0
0.96875 0.15625 0
1 0.15625 0
0.96875 0.1875 0
1 0.1875 0
0.875 0.1875 0
0.90625 0.1875 0
0.875 0.21875 0
0.90625 0.21875 0
0.875 0.21875 0
0.90625 0.21875 0
0.875 0.25 0
0.90625 0.25 0
0.3125 0.0625 0
0.34375 0.0625 0
0.3125 0.09375 0
0.34375 0.09375 0
0.34375 0.0625 0
0.375 0.0625 0
0.34375 0.09375 0
0.375 0.09375 0
0.3125 0.09375 0
0.34375 0.09375 0
0.3125 0.125 0
0.34375 0.125 0
0.34375 0.09375 0
0.375 0.09375 0
0.34375 0.125 0
0.375 0.125 0
0.53125 0 0
0.5625 0 0
0.53125 0.03125 0
0.5625 0.03125 0
0.5 0.03125 0
0.53125 0.03125 0
0.5 0.0625 0
0.53125 0.0625 0
0.53125 0.03125 0
0.5625 0.03125 0
0.53125 0.0625 0
0.5625 0.0625 0
0.5 0.25 0
0.53125 0.25 0
0.5 0.28125 0
0.53125 0.28125 0
0.53125 0.25 0
0.5625 0.25 0
0.53125 0.28125 0
0.5625 0.28125 0
0.5 0.28125 0
0.53125 0.28125 0
0.5 0.3125 0
0.53125 0.3125 0
0.53125 0.28125 0
0.5625 0.28125 0
0.53125 0.3125 0
0.5625 0.3125 0
0.5625 0.25 0
0.59375 0.25 0
0.5625 0.28125 0
0.59375 0.28125 0
0.5625 0.28125 0
0.59375 0.28125 0
0.5625 0.3125 0
0.59375 0.3125 0
0.59375 0.28125 0
0.625 0.28125 0
0.59375 0.3125 0
0.625 0.3125 0
0.5625 0.3125 0
0.59375 0.3125 0
0.5625 0.34375 0
0.59375 0.34375 0
0.59375 0.3125 0
0.625 0.3125 0
0.59375 0.34375 0
0.625 0.34375 0
0.5625 0.34375 0
0.59375 0.34375 0
0.5625 0.375 0
0.59375 0.375 0
0.59375 0.34375 0
0.625 0.34375 0
0.59375 0.375 0
0.625 0.375 0
0.09375 0.25 0
0.125 0.25 0
0.09375 0.28125 0
0.125 0.28125 0
0.09375 0.28125 0
0.125 0.28125 0
0.09375 0.3125 0
0.125 0.3125 0
0.125 0.25 0
0.15625 0.25 0
0.125 0.28125 0
0.15625 0.28125 0
0.15625 0.25 0
0.1875 0.25 0
0.15625 0.28125 0
0.1875 0.28125 0
0.125 0.28125 0
0.15625 0.28125 0
0.125 0.3125 0
0.15625 0.3125 0
0.15625 0.28125 0
0.1875 0.28125 0
0.15625 0.3125 0
0.1875 0.3125 0
0.1875 0.25 0
0.21875 0.25 0
0.1875 0.28125 0
0.21875 0.28125 0
0.21875 0.25 0
0.25 0.25 0
0.21875 0.28125 0
0.25 0.28125 0
0.1875 0.28125 0
0.21875 0.28125 0
0.1875 0.3125 0
0.21875 0.3125 0
0.21875 0.28125 0
0.25 0.28125 0
0.21875 0.3125 0
0.25 0.3125 0
0.75 0 0
0.78125 0 0
0.75 0.03125 0
0.78125 0.03125 0
0.78125 0 0
0.8125 0 0
0.78125 0.03125 0
0.8125 0.03125 0
0.75 0.03125 0
0.78125 0.03125 0
0.75 0.0625 0
0.78125 0.0625 0
0.78125 0.03125 0
0.8125 0.03125 0
0.78125 0.0625 0
0.8125 0.0625 0
0.84375 0.03125 0
0.875 0.03125 0
0.84375 0.0625 0
0.875 0.0625 0
0.25 0.125 0
0.28125 0.125 0
0.25 0.15625 0
0.28125 0.15625 0
0.28125 0.125 0
0.3125 0.125 0
0.28125 0.15625 0
0.3125 0.15625 0
0.25 0.15625 0
0.28125 0.15625 0
0.25 0.1875 0
0.28125 0.1875 0
0.28125 0.15625 0
0.3125 0.15625 0
0.28125 0.1875 0
0.3125 0.1875 0
0.8125 0.0625 0
0.84375 0.0625 0
0.8125 0.09375 0
0.84375 0.09375 0
0.84375 0.0625 0
0.875 0.0625 0
0.84375 0.09375 0
0.875 0.09375 0
0.8125 0.09375 0
0.84375 0.09375 0
0.8125 0.125 0
0.84375 0.125 0
0.875 0 0
0.90625 0 0
0.875 0.03125 0
0.90625 0.03125 0
0.90625 0 0
0.9375 0 0
0.90625 0.03125 0
0.9375 0.03125 0
0.875 0.03125 0
0.90625 0.03125 0
0.875 0.0625 0
0.90625 0.0625 0
0.90625 0.03125 0
0.9375 0.03125 0
0.90625 0.0625 0
0.9375 0.0625 0
0.875 0.0625 0
0.90625 0.0625 0
0.875 0.09375 0
0.90625 0.09375 0
0.90625 0.0625 0
0.9375 0.0625 0
0.90625 0.09375 0
0.9375 0.09375 0
0.875 0.09375 0
0.90625 0.09375 0
0.875 0.125 0
0.90625 0.125 0
0.90625 0.09375 0
0.9375 0.09375 0
0.90625 0.125 0
0.9375 0.125 0
0.25 0.1875 0
0.28125 0.1875 0
0.25 0.21875 0
0.28125 0.21875 0
0.28125 0.1875 0
0.3125 0.1875 0
0.28125 0.21875 0
0.3125 0.21875 0
0.25 0.21875 0
0.28125 0.21875 0
0.25 0.25 0
0.28125 0.25 0
0.28125 0.21875 0
0.3125 0.21875 0
0.28125 0.25 0
0.3125 0.25 0
0.8125 0.125 0
0.84375 0.125 0
0.8125 0.15625 0
0.84375 0.15625 0
0.8125 0.15625 0
0.84375 0.15625 0
0.8125 0.1875 0
0.84375 0.1875 0
0.8125 0.1875 0
0.84375 0.1875 0
0.8125 0.21875 0
0.84375 0.21875 0
0.8125 0.21875 0
0.84375 0.21875 0
0.8125 0.25 0
0.84375 0.25 0
0.84375 0.21875 0
0.875 0.21875 0
0.84375 0.25 0
0.875 0.25 0
0.40625 0.1875 0
0.4375 0.1875 0
0.40625 0.21875 0
0.4375 0.21875 0
0.40625 0.21875 0
0.4375 0.21875 0
0.40625 0.25 0
0.4375 0.25 0
0.75 0.25 0
0.78125 0.25 0
0.75 0.28125 0
0.78125 0.28125 0
0.78125 0.25 0
0.8125 0.25 0
0.78125 0.28125 0
0.8125 0.28125 0
0.75 0.28125 0
0.78125 0.28125 0
0.75 0.3125 0
0.78125 0.3125 0
0.78125 0.28125 0
0.8125 0.28125 0
0.78125 0.3125 0
0.8125 0.3125 0
0.8125 0.25 0
0.84375 0.25 0
0.8125 0.28125 0
0.84375 0.28125 0
0.84375 0.25 0
0.875 0.25 0
0.84375 0.28125 0
0.875 0.28125 0
0.8125 0.28125 0
0.84375 0.28125 0
0.8125 0.3125 0
0.84375 0.3125 0
0.84375 0.28125 0
0.875 0.28125 0
0.84375 0.3125 0
0.875 0.3125 0
0.875 0.25 0
0.90625 0.25 0
0.875 0.28125 0
0.90625 0.28125 0
0.875 0.28125 0
0.90625 0.28125 0
0.875 0.3125 0
0.90625 0.3125 0
0.625 0 0
0.65625 0 0
0.625 0.03125 0
0.65625 0.03125 0
0.65625 0 0
0.6875 0 0
0.65625 0.03125 0
0.6875 0.03125 0
0.625 0.03125 0
0.65625 0.03125 0
0.625 0.0625 0
0.65625 0.0625 0
0.65625 0.03125 0
[...]
POINT_DATA 8248
SCALARS U double 1
LOOKUP_TABLE default
0 0.234982 0 0.220851 0.235175 1.58054e-16 0.220943 1.48478e-16 -0.129948 0.0635855 -0.120447 0.0614032 0.0635855 0.234868 0.0614032 0.222557 0 0.195925 0 0.184567 0 0.184567 0 0.174862 0.195948 1.31031e-16 0.184581 1.23092e-16 0.184581 1.23092e-16 0.174862 1.15635e-16 0 0.218321 0 0.211077 0.218321 0.417708 0.211077 0.404879 0 0.211077 0 0.204253 0.475323 0.661356 0.460022 0.640665 0.661356 0.790434 0.640665 0.766468 0.460022 0.640665 0.446108 0.62042 0.640665 0.766468 0.62042 0.741656 0.446108 0.62042 0.43161 0.600387 0.62042 0.741656 0.600387 0.718134 0.43161 0.600387 0.417708 0.580966 0.600387 0.718134 0.580966 0.693218 0.766468 0.825244 0.741656 0.799448 0.83912 0.754536 0.812164 0.730805 0.754536 0.604972 0.730805 0.585699 0.812164 0.730805 0.788038 0.708584 0.730805 0.585699 0.708584 0.566769 0.741656 0.799448 0.718134 0.773281 0.799448 0.788038 0.773281 0.760198 0.773281 0.760198 0.746307 0.735739 0.417708 0.580966 0.404879 0.562199 0.580966 0.693218 0.562199 0.671174 0.562199 0.671174 0.543443 0.649222 0.166911 -0.0838595 0.160989 -0.0819039 -0.0838595 -0.327408 -0.0819039 -0.317813 0.160989 -0.0819039 0.155184 -0.0800308 -0.0819039 -0.317813 -0.0800308 -0.308467 0.746307 0.735739 0.722626 0.711748 0.722626 0.711748 0.69898 0.688957 0.543443 0.649222 0.526668 0.629986 0.526668 0.629986 0.510169 0.609717 0.69898 0.688957 0.678273 0.6666 0.629986 0.678273 0.609717 0.65648 0.678273 0.6666 0.65648 0.646868 0.604972 0.403308 0.585699 0.390065 0.403308 0.166911 0.390065 0.160989 0.585699 0.390065 0.566769 0.376968 0.390065 0.160989 0.376968 0.155184 0.566769 0.376968 0.546813 0.36421 0.376968 0.155184 0.36421 0.149492 0.546813 0.36421 0.529236 0.351832 0.36421 0.149492 0.351832 0.143958 -0.711371 -0.818719 -0.690327 -0.795508 -0.690327 -0.795508 -0.669782 -0.771761 -0.795508 -0.832987 -0.771761 -0.80652 -0.426786 -0.55814 -0.414374 -0.541836 -0.414374 -0.541836 -0.402855 -0.525703 -0.55814 -0.642563 -0.541836 -0.622968 -0.642563 -0.671115 -0.622968 -0.65094 -0.541836 -0.622968 -0.525703 -0.604776 -0.622968 -0.65094 -0.604776 -0.631592 -0.246095 -0.402855 -0.239112 -0.390968 -0.402855 -0.525703 -0.390968 -0.508583 -0.239112 -0.390968 -0.232521 -0.379685 -0.390968 -0.508583 -0.379685 -0.495224 0 0.248356 0 0.240183 0 0.240183 0 0.233241 0 0.233241 0 0.225568 0.233241 0.446108 0.225568 0.43161 0 0.225568 0 0.218321 0.225568 0.43161 0.218321 0.417708 0.166911 0.403308 0.160994 0.390072 0.403308 0.604972 0.390072 0.585707 0.160994 0.390072 0.155195 0.376983 0.390072 0.585707 0.376983 0.566786 0.155195 0.376983 0.149511 0.364234 0.376983 0.566786 0.364234 0.546839 0.149511 0.364234 0.143992 0.351868 0.364234 0.546839 0.351868 0.529272 0.693242 0.580984 0.671203 0.562222 0.580984 0.417721 0.562222 0.404895 0.671203 0.562222 0.649256 0.543469 0.417721 0.218327 0.404895 0.211084 0.218327 2.77393e-16 0.211084 2.68858e-16 0.211084 2.68858e-16 0.204262 2.60587e-16 0.649256 0.543469 0.630023 0.526697 0.630023 0.526697 0.609757 0.510201 0.155184 -0.0800308 0.149492 -0.0782483 -0.0800308 -0.308467 -0.0782483 -0.299391 0.149492 -0.0782483 0.143958 -0.0765762 -0.0782483 -0.299391 -0.0765762 -0.290676 -0.818719 -0.711371 -0.795512 -0.690333 -0.832987 -0.795512 -0.80652 -0.771772 -0.795512 -0.690333 -0.771772 -0.6698 -0.671115 -0.64242 -0.65094 -0.623105 -0.64242 -0.558912 -0.623105 -0.542088 -0.65094 -0.623105 -0.631592 -0.604849 -0.623105 -0.542088 -0.604849 -0.525859 -0.558912 -0.427051 -0.542088 -0.415257 -0.542088 -0.415257 -0.525859 -0.402743 -0.415257 -0.253137 -0.402743 -0.24595 -0.525859 -0.402743 -0.508593 -0.390947 -0.402743 -0.24595 -0.390947 -0.239079 -0.508593 -0.390947 -0.495223 -0.379673 -0.390947 -0.239079 -0.379673 -0.232503 0.510169 0.609717 0.493963 0.590384 0.493963 0.590384 0.478317 0.571897 0.609717 0.65648 0.590384 0.635753 0.65648 0.646868 0.635753 0.626144 0.590384 0.635753 0.571897 0.615599 0.635753 0.626144 0.615599 0.606083 0.646868 0.58173 0.626144 0.562061 0.58173 0.464225 0.562061 0.449037 0.626144 0.562061 0.606083 0.544113 0.562061 0.449037 0.544113 0.434054 0.604972 0.754536 0.585707 0.730814 0.754536 0.83912 0.730814 0.812172 0.585707 0.730814 0.566786 0.708602 0.730814 0.812172 0.708602 0.788055 0.825252 0.766475 0.799464 0.741668 0.529236 0.351832 0.511906 0.340017 0.351832 0.143958 0.340017 0.138592 0.511906 0.340017 0.495093 0.328557 0.340017 0.138592 0.328557 0.133421 0.788055 0.799464 0.760223 0.773303 0.799464 0.741668 0.773303 0.718152 0.760223 0.773303 0.735772 0.746336 0.790434 0.661356 0.766475 0.64067 0.661356 0.475323 0.64067 0.460025 0.766475 0.64067 0.741668 0.620429 0.64067 0.460025 0.620429 0.446114 0.741668 0.620429 0.718152 0.600401 0.620429 0.446114 0.600401 0.431619 0.718152 0.600401 0.693242 0.580984 0.600401 0.431619 0.580984 0.417721 0.495093 0.328557 0.478601 0.317639 0.328557 0.133421 0.317639 0.128437 0.478601 0.317639 0.464225 0.307096 0.317639 0.128437 0.307096 0.123621 0.735772 0.746336 0.711787 0.722661 0.711787 0.722661 0.689001 0.69902 0.689001 0.69902 0.666646 0.678316 0.666646 0.678316 0.646916 0.656525 0.678316 0.630023 0.656525 0.609757 -0.452944 -0.59192 -0.439445 -0.573623 -0.439445 -0.573623 -0.426786 -0.55814 0.464266 0.581777 0.449073 0.562106 0.581777 0.646916 0.562106 0.626194 0.449073 0.562106 0.434088 0.544158 0.562106 0.626194 0.544158 0.606134 0.646916 0.656525 0.626194 0.635802 0.656525 0.609757 0.635802 0.590427 0.626194 0.635802 0.606134 0.615651 0.635802 0.590427 0.615651 0.571946 0.609757 0.510201 0.590427 0.493999 0.590427 0.493999 0.571946 0.478358 -0.327408 -0.0838595 -0.317815 -0.0819024 -0.0838595 0.166911 -0.0819024 0.160994 -0.317815 -0.0819024 -0.308475 -0.0800283 -0.0819024 0.160994 -0.0800283 0.155195 0.464225 0.307096 0.449037 0.296848 0.307096 0.123621 0.296848 0.118907 0.296848 0.118907 0.286605 0.114296 0.434054 0.286605 0.418579 0.27677 0.286605 0.114296 0.27677 0.109843 0.418579 0.27677 0.405667 0.267445 0.27677 0.109843 0.267445 0.10554 0.143992 0.351868 0.138648 0.340064 0.351868 0.529272 0.340064 0.511949 0.138648 0.340064 0.133495 0.328609 0.340064 0.511949 0.328609 0.495141 0.133495 0.328609 0.1285 0.317686 0.328609 0.495141 0.317686 0.478648 0.1285 0.317686 0.123652 0.307131 0.317686 0.478648 0.307131 0.464266 0.248356 3.14327e-16 0.240184 3.04657e-16 0.240184 3.04657e-16 0.233245 2.95283e-16 0.446114 0.233245 0.431619 0.225573 0.233245 2.95283e-16 0.225573 2.86198e-16 0.431619 0.225573 0.417721 0.218327 0.225573 2.86198e-16 0.218327 2.77393e-16 0.123652 0.307131 0.118902 0.29687 0.307131 0.464266 0.29687 0.449073 0.118902 0.29687 0.114288 0.286621 0.114288 0.286621 0.109846 0.276789 0.286621 0.434088 0.276789 0.418613 0.109846 0.276789 0.105557 0.267469 0.276789 0.418613 0.267469 0.405703 0.267445 0.10554 0.257627 0.1016 0.257627 0.1016 0.249974 0.0978697 -0.308475 -0.0800283 -0.299409 -0.0782439 -0.0800283 0.155195 -0.0782439 0.149511 -0.299409 -0.0782439 -0.290708 -0.0765572 -0.0782439 0.149511 -0.0765572 0.143992 -0.206979 -0.337177 -0.200908 -0.326596 -0.337177 -0.438265 -0.326596 -0.424692 -0.200908 -0.326596 -0.194713 -0.316671 -0.326596 -0.424692 -0.316671 -0.41213 -0.194713 -0.316671 -0.188739 -0.305935 -0.188739 -0.305935 -0.182872 -0.297356 -0.472972 -0.494384 -0.458308 -0.479134 -0.232521 -0.379685 -0.22597 -0.369382 -0.379685 -0.495224 -0.369382 -0.480755 -0.495224 -0.569281 -0.480755 -0.551762 -0.569281 -0.594356 -0.551762 -0.576269 -0.480755 -0.551762 -0.465886 -0.535157 -0.551762 -0.576269 -0.535157 -0.55849 -0.535157 -0.55849 -0.517924 -0.541528 -0.517924 -0.541528 -0.502934 -0.525584 -0.430294 -0.449762 -0.41664 -0.435525 -0.594356 -0.569286 -0.576269 -0.55176 -0.569286 -0.495223 -0.55176 -0.48075 -0.576269 -0.55176 -0.55849 -0.535155 -0.55176 -0.48075 -0.535155 -0.465882 -0.495223 -0.379673 -0.48075 -0.369372 -0.379673 -0.232503 -0.369372 -0.225957 -0.55849 -0.535155 -0.541528 -0.517923 -0.541528 -0.517923 -0.525584 -0.502935 0.105557 0.267469 0.101618 0.257653 0.101618 0.257653 0.0978845 0.249997 0 0.179475 0 0.173737 0.179475 0.343441 0.173737 0.332317 0 0.173737 0 0.168221 0.173737 0.332317 0.168221 0.321942 0.448395 0.536062 0.434505 0.518792 -0.438267 -0.337181 -0.424698 -0.326605 -0.337181 -0.206983 -0.326605 -0.20092 -0.424698 -0.326605 -0.412141 -0.316686 -0.326605 -0.20092 -0.316686 -0.194733 -0.494384 -0.472977 -0.479134 -0.458315 -0.316686 -0.194733 -0.305956 -0.188765 -0.305956 -0.188765 -0.297382 -0.182904 -0.449762 -0.430305 -0.435525 -0.416653 0.536062 0.576743 0.518792 0.557948 0.576743 0.567502 0.557948 0.548895 0.518792 0.557948 0.501078 0.53988 0.557948 0.548895 0.53988 0.531261 0.567502 0.508468 0.548895 0.49191 0.548895 0.49191 0.531261 0.476189 0.501078 0.53988 0.485167 0.522584 0.53988 0.531261 0.522584 0.514465 0.485167 0.522584 0.47106 0.506343 0.522584 0.514465 0.506343 0.496943 0.531261 0.476189 0.514465 0.461413 0.508516 0.56756 0.49196 0.548959 0.49196 0.548959 0.476239 0.53133 0.56756 0.576808 0.548959 0.558024 0.576808 0.536127 0.558024 0.518873 0.548959 0.558024 0.53133 0.539968 0.558024 0.518873 0.539968 0.501179 0.476239 0.53133 0.461458 0.514536 0.53133 0.539968 0.514536 0.522687 0.539968 0.501179 0.522687 0.485296 0.514536 0.522687 0.497005 0.506453 0.522687 0.485296 0.506453 0.471229 0.143958 -0.0765762 0.138592 -0.0750331 -0.0765762 -0.290676 -0.0750331 -0.282399 0.138592 -0.0750331 0.133421 -0.0735973 -0.0750331 -0.282399 -0.0735973 -0.274634 0.536127 0.448454 0.518873 0.434581 0.506343 0.496943 0.489715 0.481738 0.414517 0.445847 0.400752 0.431575 0.400752 0.431575 0.388803 0.418273 0.388803 0.418273 0.376939 0.405758 0.376939 0.405758 0.366414 0.393947 0.34347 0.179491 0.332352 0.173756 0.179491 2.29967e-16 0.173756 2.22891e-16 0.332352 0.173756 0.321987 0.168246 0.173756 2.22891e-16 0.168246 2.16034e-16 -0.290708 -0.0765572 -0.28238 -0.0749661 -0.0765572 0.143992 -0.0749661 0.138648 -0.28238 -0.0749661 -0.274387 -0.0734716 -0.0749661 0.138648 -0.0734716 0.133495 -0.274387 -0.0734716 -0.266771 -0.0720736 -0.0734716 0.133495 -0.0720736 0.1285 -0.266771 -0.0720736 -0.259421 -0.0708562 -0.0720736 0.1285 -0.0708562 0.123652 0.497005 0.506453 0.481765 0.489787 -0.259421 -0.0708562 -0.253137 -0.0696696 -0.0708562 0.123652 -0.0696696 0.118902 -0.253137 -0.0696696 -0.24595 -0.0684866 -0.0696696 0.118902 -0.0684866 0.114288 0.459957 0.427351 0.445304 0.413841 0 0.130142 0 0.125568 0.130142 0.249314 0.125568 0.240205 0 0.125568 0 0.117491 0.125568 0.240205 0.117491 0.234982 0.445304 0.413841 0.431545 0.401124 0.431545 0.401124 0.418379 0.388994 0 0.204253 0 0.197811 0.204253 0.391011 0.197811 0.378526 0 0.197811 0 0.191534 0.197811 0.378526 0.191534 0.366605 0.418379 0.388994 0.405849 0.377081 0.405849 0.377081 0.394014 0.366514 0.234982 0.326019 0.227916 0.315824 0.227916 0.315824 0.220851 0.306724 0.248849 0.129976 0.24056 0.125576 0.129976 1.68247e-16 0.125576 1.63071e-16 0.24056 0.125576 0.235175 0.117588 0.125576 1.63071e-16 0.117588 1.58054e-16 0.326275 0.235175 0.315986 0.228059 0.315986 0.228059 0.306835 0.220943 0.391029 0.204262 0.378546 0.197822 0.204262 2.60587e-16 0.197822 2.52569e-16 0.378546 0.197822 0.366627 0.191546 0.197822 2.52569e-16 0.191546 2.44798e-16 0.233539 0.0908527 0.225046 0.0876369 0.225046 0.0876369 0.218694 0.0846887 0 0.157699 0 0.152649 0.157699 0.301692 0.152649 0.292165 0 0.152649 0 0.147898 0.090851 0.233544 0.0876248 0.22504 0.0876248 0.22504 0.0846666 0.218678 0.301773 0.157744 0.292279 0.152713 0.157744 2.02945e-16 0.152713 1.96701e-16 0.152713 1.96701e-16 0.147986 1.90649e-16 0 0.138977 0 0.134016 0 0.134016 0 0.130142 0.13879 1.79098e-16 0.134294 1.73588e-16 0.257039 0.134294 0.248849 0.129976 0.134294 1.73588e-16 0.129976 1.68247e-16 -0.213885 -0.129948 -0.206337 -0.125197 -0.206337 -0.125197 -0.199671 -0.120447 0.0646164 0.162339 0.0632239 0.158 0.162339 0.245754 0.158 0.23939 0.0632239 0.158 0.0635855 0.149227 0.158 0.23939 0.149227 0.234868 0 0.191534 0 0.185427 0.191534 0.366605 0.185427 0.354943 0 0.185427 0 0.179475 0.185427 0.354943 0.179475 0.343441 0.205306 0.0794183 0.19837 0.0769408 0.19837 0.0769408 0.192525 0.0746298 0.192525 0.0746298 0.186705 0.0726293 0.186705 0.0726293 0.181749 0.070775 0.133421 -0.0735973 0.128437 -0.072222 -0.0735973 -0.274634 -0.072222 -0.26712 0.128437 -0.072222 0.123621 -0.0708638 -0.072222 -0.26712 -0.0708638 -0.259736 0.195925 0.272072 0.190246 0.2639 0.190246 0.2639 0.184567 0.256589 0.366627 0.191546 0.354969 0.18544 0.191546 2.44798e-16 0.18544 2.37267e-16 0.354969 0.18544 0.34347 0.179491 0.18544 2.37267e-16 0.179491 2.29967e-16 0.184567 0.256589 0.179714 0.250173 0.179714 0.250173 0.174862 0.243299 0.250173 0.299067 0.243299 0.290784 0.0793819 0.205275 0.0769001 0.198335 0.0769001 0.198335 0.0745849 0.192487 0.0745849 0.192487 0.072577 0.186662 0.072577 0.186662 0.0707073 0.181689 0.23939 0.300654 0.234868 0.292556 0.234868 0.292556 0.228712 0.285054 0.228712 0.285054 0.222557 0.277578 0.2721 0.195948 0.263926 0.190264 0.263926 0.190264 0.256612 0.184581 0.123621 -0.0708638 0.118907 -0.0696219 -0.0708638 -0.259736 -0.0696219 -0.25237 0.118907 -0.0696219 0.114296 -0.0684065 -0.0696219 -0.25237 -0.0684065 -0.246095 0.256612 0.184581 0.250187 0.179721 0.299092 0.250187 0.290784 0.243299 0.250187 0.179721 0.243299 0.174862 0.114296 -0.0684065 0.109843 -0.067226 -0.0684065 -0.246095 -0.067226 -0.239112 0.109843 -0.067226 0.10554 -0.0659165 -0.067226 -0.239112 -0.0659165 -0.232521 -0.24595 -0.0684866 -0.239079 -0.0672083 -0.0684866 0.114288 -0.0672083 0.109846 -0.239079 -0.0672083 -0.232503 -0.0658995 -0.0672083 0.109846 -0.0658995 0.105557 0.10554 -0.0659165 0.1016 -0.0644729 -0.0659165 -0.232521 -0.0644729 -0.22597 0.1016 -0.0644729 0.0978697 -0.062954 -0.0644729 -0.22597 -0.062954 -0.218828 0.379985 0.249974 0.367253 0.24156 0.249974 0.0978697 0.24156 0.0943816 0.367253 0.24156 0.355356 0.233539 0.24156 0.0943816 0.233539 0.0908527 0.0978697 -0.062954 0.0943816 -0.0615125 -0.062954 -0.218828 -0.0615125 -0.212499 0.0943816 -0.0615125 0.0908527 -0.0601421 -0.0615125 -0.212499 -0.0601421 -0.206979 0.0908527 -0.0601421 0.0876369 -0.058707 -0.0601421 -0.206979 -0.058707 -0.200908 0.0876369 -0.058707 0.0846887 -0.0570874 -0.058707 -0.200908 -0.0570874 -0.194713 0.333581 0.218694 0.322741 0.211841 0.218694 0.0846887 0.211841 0.0820538 0.322741 0.211841 0.312673 0.205306 0.211841 0.0820538 0.205306 0.0794183 0.0846887 -0.0570874 0.0820538 -0.0553983 -0.0570874 -0.194713 -0.0553983 -0.188739 0.0820538 -0.0553983 0.0794183 -0.0537076 -0.0553983 -0.188739 -0.0537076 -0.182872 -0.182872 -0.297356 -0.177204 -0.287904 -0.297356 -0.386882 -0.287904 -0.374551 -0.177204 -0.287904 -0.171527 -0.278689 -0.287904 -0.374551 -0.278689 -0.362634 -0.171527 -0.278689 -0.165948 -0.269805 -0.278689 -0.362634 -0.269805 -0.350676 -0.165948 -0.269805 -0.160476 -0.261156 -0.269805 -0.350676 -0.261156 -0.340256 0 0.110425 0 0.110946 0.110425 0.220851 0.110946 0.21293 0 0.110946 0 0.107938 0.110946 0.21293 0.107938 0.206841 0.220851 0.306724 0.21293 0.29704 0.306724 0.366414 0.29704 0.354363 0.21293 0.29704 0.206841 0.287959 0.29704 0.354363 0.287959 0.344102 0 0.107938 0 0.104514 0.107938 0.206841 0.104514 0.200559 0 0.104514 0 0.0979623 0.104514 0.200559 0.0979623 0.195925 0.206841 0.287959 0.200559 0.279798 0.287959 0.344102 0.279798 0.334216 0.200559 0.279798 0.195925 0.272072 0.279798 0.334216 0.272072 0.32509 -0.232503 -0.0658995 -0.225957 -0.0644578 -0.0658995 0.105557 -0.0644578 0.101618 -0.225957 -0.0644578 -0.21882 -0.0629433 -0.0644578 0.101618 -0.0629433 0.0978845 -0.21882 -0.0629433 -0.212496 -0.0615085 -0.0629433 0.0978845 -0.0615085 0.0943893 -0.212496 -0.0615085 -0.206983 -0.0601465 -0.0615085 0.0943893 -0.0601465 0.090851 0.0978845 0.249997 0.0943893 0.241575 0.249997 0.380019 0.241575 0.36728 0.0943893 0.241575 0.090851 0.233544 0.241575 0.36728 0.233544 0.355373 0 0.168221 0 0.162885 0.168221 0.321942 0.162885 0.311794 0 0.162885 0 0.157699 0.162885 0.311794 0.157699 0.301692 -0.206983 -0.0601465 -0.20092 -0.0587207 -0.0601465 0.090851 -0.0587207 0.0876248 -0.20092 -0.0587207 -0.194733 -0.0571099 -0.0587207 0.0876248 -0.0571099 0.0846666 -0.194733 -0.0571099 -0.188765 -0.0554285 -0.0571099 0.0846666 -0.0554285 0.0820235 -0.188765 -0.0554285 -0.182904 -0.0537437 -0.0554285 0.0820235 -0.0537437 0.0793819 0.0846666 0.218678 0.0820235 0.211816 0.218678 0.333576 0.211816 0.322729 0.0820235 0.211816 0.0793819 0.205275 0.211816 0.322729 0.205275 0.312655 -0.3869 -0.297382 -0.374573 -0.287934 -0.297382 -0.182904 -0.287934 -0.177242 -0.374573 -0.287934 -0.36266 -0.278724 -0.287934 -0.177242 -0.278724 -0.17157 -0.36266 -0.278724 -0.350707 -0.269848 -0.278724 -0.17157 -0.269848 -0.165998 -0.350707 -0.269848 -0.340296 -0.261209 -0.269848 -0.165998 -0.261209 -0.16054 0.366514 0.306835 0.354428 0.297115 0.306835 0.220943 0.297115 0.212992 0.354428 0.297115 0.344142 0.288009 0.297115 0.212992 0.288009 0.206884 0.220943 0.110472 0.212992 0.110981 0.110472 1.48478e-16 0.110981 1.4391e-16 0.212992 0.110981 0.206884 0.107962 0.110981 1.4391e-16 0.107962 1.39482e-16 0.344142 0.288009 0.334241 0.279833 0.288009 0.206884 0.279833 0.200589 0.334241 0.279833 0.325115 0.2721 0.279833 0.200589 0.2721 0.195948 0.206884 0.107962 0.200589 0.104531 0.107962 1.39482e-16 0.104531 1.35191e-16 0.200589 0.104531 0.195948 0.0979739 0.104531 1.35191e-16 0.0979739 1.31031e-16 0.321987 0.168246 0.311853 0.162918 0.168246 2.16034e-16 0.162918 2.09387e-16 0.311853 0.162918 0.301773 0.157744 0.162918 2.09387e-16 0.157744 2.02945e-16 0 0.147898 0 0.143429 0.147898 0.28365 0.143429 0.27443 0 0.143429 0 0.138977 0.143429 0.27443 0.138977 0.265762 0.28365 0.39468 0.27443 0.381539 0.39468 0.47106 0.381539 0.454929 0.27443 0.381539 0.265762 0.369201 0.381539 0.454929 0.369201 0.440709 0.265762 0.369201 0.256878 0.357783 0.369201 0.440709 0.357783 0.426734 0.256878 0.357783 0.249314 0.347247 0.357783 0.426734 0.347247 0.414517 0.466516 0.418755 0.45185 0.405109 0.418755 0.333581 0.405109 0.322741 0.45185 0.405109 0.437866 0.392296 0.405109 0.322741 0.392296 0.312673 0.437866 0.392296 0.424357 0.380106 0.392296 0.312673 0.380106 0.302394 0.424357 0.380106 0.411373 0.368461 0.380106 0.302394 0.368461 0.293351 0.411373 0.368461 0.399054 0.357536 0.368461 0.293351 0.357536 0.284504 0.399054 0.357536 0.387332 0.347472 0.357536 0.284504 0.347472 0.276649 0.276649 0.181749 0.267773 0.176421 0.181749 0.070775 0.176421 0.0690877 0.267773 0.176421 0.26035 0.171513 0.176421 0.0690877 0.171513 0.0675224 0.070775 -0.0465759 0.0690877 -0.0446759 -0.0465759 -0.160476 -0.0446759 -0.155087 0.0690877 -0.0446759 0.0675224 -0.0427362 -0.0446759 -0.155087 -0.0427362 -0.149774 0.26035 0.171513 0.253196 0.167022 0.171513 0.0675224 0.167022 0.0661525 0.253196 0.167022 0.246405 0.162813 0.167022 0.0661525 0.162813 0.064959 0.0675224 -0.0427362 0.0661525 -0.0407596 -0.0427362 -0.149774 -0.0407596 -0.144544 0.0661525 -0.0407596 0.064959 -0.0387547 -0.0407596 -0.144544 -0.0387547 -0.139428 -0.160476 -0.261156 -0.155087 -0.252739 -0.261156 -0.340256 -0.252739 -0.329289 -0.155087 -0.252739 -0.149774 -0.244417 -0.252739 -0.329289 -0.244417 -0.31854 -0.340256 -0.391039 -0.329289 -0.378082 -0.391039 -0.408219 -0.378082 -0.394874 -0.329289 -0.378082 -0.31854 -0.36576 -0.378082 -0.394874 -0.36576 -0.381982 -0.149774 -0.244417 -0.144544 -0.236295 -0.244417 -0.31854 -0.236295 -0.308136 -0.144544 -0.236295 -0.139428 -0.228422 -0.236295 -0.308136 -0.228422 -0.298097 -0.31854 -0.36576 -0.308136 -0.353888 -0.36576 -0.381982 -0.353888 -0.369608 -0.308136 -0.353888 -0.298097 -0.342467 -0.353888 -0.369608 -0.342467 -0.35772 0.246405 0.162813 0.239964 0.158865 0.162813 0.064959 0.158865 0.0639079 0.239964 0.158865 0.23386 0.155158 0.158865 0.0639079 0.155158 0.0629779 0.064959 -0.0387547 0.0639079 -0.0367448 -0.0387547 -0.139428 -0.0367448 -0.13445 0.0639079 -0.0367448 0.0629779 -0.0347505 -0.0367448 -0.13445 -0.0347505 -0.129628 0.23386 0.155158 0.228068 0.15167 0.155158 0.0629779 0.15167 0.0621494 0.228068 0.15167 0.222557 0.148369 0.15