# vtk DataFile Version 3.0
#This file was generated by the deal.II library on 2018/12/4 at 0:47:16
ASCII
DATASET UNSTRUCTURED_GRID

POINTS 35104 double
0.96875 0.59375 0
1 0.59375 0
0.96875 0.625 0
1 0.625 0
0.59375 0.96875 0
0.625 0.96875 0
0.59375 1 0
0.625 1 0
0.28125 0.65625 0
0.3125 0.65625 0
0.28125 0.6875 0
0.3125 0.6875 0
0.28125 0.6875 0
0.3125 0.6875 0
0.28125 0.71875 0
0.3125 0.71875 0
0.6875 0.65625 0
0.71875 0.65625 0
0.6875 0.6875 0
0.71875 0.6875 0
0.6875 0.6875 0
0.71875 0.6875 0
0.6875 0.71875 0
0.71875 0.71875 0
0.3125 0.5 0
0.34375 0.5 0
0.3125 0.53125 0
0.34375 0.53125 0
0.3125 0.53125 0
0.34375 0.53125 0
0.3125 0.5625 0
0.34375 0.5625 0
0.3125 0.5625 0
0.34375 0.5625 0
0.3125 0.59375 0
0.34375 0.59375 0
0.34375 0.5625 0
0.375 0.5625 0
0.34375 0.59375 0
0.375 0.59375 0
0.3125 0.59375 0
0.34375 0.59375 0
0.3125 0.625 0
0.34375 0.625 0
0.34375 0.59375 0
0.375 0.59375 0
0.34375 0.625 0
0.375 0.625 0
0.65625 0.5 0
0.6875 0.5 0
0.65625 0.53125 0
0.6875 0.53125 0
0.65625 0.53125 0
0.6875 0.53125 0
0.65625 0.5625 0
0.6875 0.5625 0
0.625 0.5625 0
0.65625 0.5625 0
0.625 0.59375 0
0.65625 0.59375 0
0.65625 0.5625 0
0.6875 0.5625 0
0.65625 0.59375 0
0.6875 0.59375 0
0.625 0.59375 0
0.65625 0.59375 0
0.625 0.625 0
0.65625 0.625 0
0.65625 0.59375 0
0.6875 0.59375 0
0.65625 0.625 0
0.6875 0.625 0
0.3125 0.75 0
0.34375 0.75 0
0.3125 0.78125 0
0.34375 0.78125 0
0.3125 0.78125 0
0.34375 0.78125 0
0.3125 0.8125 0
0.34375 0.8125 0
0.3125 0.8125 0
0.34375 0.8125 0
0.3125 0.84375 0
0.34375 0.84375 0
0.34375 0.8125 0
0.375 0.8125 0
0.34375 0.84375 0
0.375 0.84375 0
0.3125 0.84375 0
0.34375 0.84375 0
0.3125 0.875 0
0.34375 0.875 0
0.34375 0.84375 0
0.375 0.84375 0
0.34375 0.875 0
0.375 0.875 0
0.3125 0.875 0
0.34375 0.875 0
0.3125 0.90625 0
0.34375 0.90625 0
0.34375 0.875 0
0.375 0.875 0
0.34375 0.90625 0
0.375 0.90625 0
0.3125 0.90625 0
0.34375 0.90625 0
0.3125 0.9375 0
0.34375 0.9375 0
0.34375 0.90625 0
0.375 0.90625 0
0.34375 0.9375 0
0.375 0.9375 0
0.28125 0.9375 0
0.3125 0.9375 0
0.28125 0.96875 0
0.3125 0.96875 0
0.28125 0.96875 0
0.3125 0.96875 0
0.28125 1 0
0.3125 1 0
0.3125 0.9375 0
0.34375 0.9375 0
0.3125 0.96875 0
0.34375 0.96875 0
0.3125 0.96875 0
0.34375 0.96875 0
0.3125 1 0
0.34375 1 0
0.65625 0.75 0
0.6875 0.75 0
0.65625 0.78125 0
0.6875 0.78125 0
0.65625 0.78125 0
0.6875 0.78125 0
0.65625 0.8125 0
0.6875 0.8125 0
0.625 0.8125 0
0.65625 0.8125 0
0.625 0.84375 0
0.65625 0.84375 0
0.65625 0.8125 0
0.6875 0.8125 0
0.65625 0.84375 0
0.6875 0.84375 0
0.625 0.84375 0
0.65625 0.84375 0
0.625 0.875 0
0.65625 0.875 0
0.65625 0.84375 0
0.6875 0.84375 0
0.65625 0.875 0
0.6875 0.875 0
0.625 0.875 0
0.65625 0.875 0
0.625 0.90625 0
0.65625 0.90625 0
0.65625 0.875 0
0.6875 0.875 0
0.65625 0.90625 0
0.6875 0.90625 0
0.625 0.90625 0
0.65625 0.90625 0
0.625 0.9375 0
0.65625 0.9375 0
0.65625 0.90625 0
0.6875 0.90625 0
0.65625 0.9375 0
0.6875 0.9375 0
0.3125 0.625 0
0.34375 0.625 0
0.3125 0.65625 0
0.34375 0.65625 0
0.3125 0.65625 0
0.34375 0.65625 0
0.3125 0.6875 0
0.34375 0.6875 0
0.3125 0.6875 0
0.34375 0.6875 0
0.3125 0.71875 0
0.34375 0.71875 0
0.3125 0.71875 0
0.34375 0.71875 0
0.3125 0.75 0
0.34375 0.75 0
0.65625 0.625 0
0.6875 0.625 0
0.65625 0.65625 0
0.6875 0.65625 0
0.65625 0.65625 0
0.6875 0.65625 0
0.65625 0.6875 0
0.6875 0.6875 0
0.65625 0.6875 0
0.6875 0.6875 0
0.65625 0.71875 0
0.6875 0.71875 0
0.65625 0.71875 0
0.6875 0.71875 0
0.65625 0.75 0
0.6875 0.75 0
0.65625 0.9375 0
0.6875 0.9375 0
0.65625 0.96875 0
0.6875 0.96875 0
0.65625 0.96875 0
0.6875 0.96875 0
0.65625 1 0
0.6875 1 0
0.6875 0.9375 0
0.71875 0.9375 0
0.6875 0.96875 0
0.71875 0.96875 0
0.6875 0.96875 0
0.71875 0.96875 0
0.6875 1 0
0.71875 1 0
0 0.875 0
0.03125 0.875 0
0 0.90625 0
0.03125 0.90625 0
0 0.90625 0
0.03125 0.90625 0
0 0.9375 0
0.03125 0.9375 0
0 0.9375 0
0.03125 0.9375 0
0 0.96875 0
0.03125 0.96875 0
0.96875 0.875 0
1 0.875 0
0.96875 0.90625 0
1 0.90625 0
0.96875 0.90625 0
1 0.90625 0
0.96875 0.9375 0
1 0.9375 0
0.96875 0.9375 0
1 0.9375 0
0.96875 0.96875 0
1 0.96875 0
0.0625 0.15625 0
0.078125 0.15625 0
0.0625 0.171875 0
0.078125 0.171875 0
0.0625 0.171875 0
0.078125 0.171875 0
0.0625 0.1875 0
0.078125 0.1875 0
0.0625 0 0
0.078125 0 0
0.0625 0.015625 0
0.078125 0.015625 0
0.078125 0 0
0.09375 0 0
0.078125 0.015625 0
0.09375 0.015625 0
0.0625 0.015625 0
0.078125 0.015625 0
0.0625 0.03125 0
0.078125 0.03125 0
0.078125 0.015625 0
0.09375 0.015625 0
0.078125 0.03125 0
0.09375 0.03125 0
0.09375 0 0
0.109375 0 0
0.09375 0.015625 0
0.109375 0.015625 0
0.09375 0.015625 0
0.109375 0.015625 0
0.09375 0.03125 0
0.109375 0.03125 0
0.0625 0.03125 0
0.078125 0.03125 0
0.0625 0.046875 0
0.078125 0.046875 0
0.078125 0.03125 0
0.09375 0.03125 0
0.078125 0.046875 0
0.09375 0.046875 0
0.0625 0.046875 0
0.078125 0.046875 0
0.0625 0.0625 0
0.078125 0.0625 0
0.078125 0.046875 0
0.09375 0.046875 0
0.078125 0.0625 0
0.09375 0.0625 0
0.09375 0.03125 0
0.109375 0.03125 0
0.09375 0.046875 0
0.109375 0.046875 0
0.09375 0.046875 0
0.109375 0.046875 0
0.09375 0.0625 0
0.109375 0.0625 0
0.109375 0.046875 0
0.125 0.046875 0
0.109375 0.0625 0
0.125 0.0625 0
0.921875 0.15625 0
0.9375 0.15625 0
0.921875 0.171875 0
0.9375 0.171875 0
0.921875 0.171875 0
0.9375 0.171875 0
0.921875 0.1875 0
0.9375 0.1875 0
0.0625 0.0625 0
0.078125 0.0625 0
0.0625 0.078125 0
0.078125 0.078125 0
0.078125 0.0625 0
0.09375 0.0625 0
0.078125 0.078125 0
0.09375 0.078125 0
0.0625 0.078125 0
0.078125 0.078125 0
0.0625 0.09375 0
0.078125 0.09375 0
0.078125 0.078125 0
0.09375 0.078125 0
0.078125 0.09375 0
0.09375 0.09375 0
0.09375 0.0625 0
0.109375 0.0625 0
0.09375 0.078125 0
0.109375 0.078125 0
0.109375 0.0625 0
0.125 0.0625 0
0.109375 0.078125 0
0.125 0.078125 0
0.09375 0.078125 0
0.109375 0.078125 0
0.09375 0.09375 0
0.109375 0.09375 0
0.109375 0.078125 0
0.125 0.078125 0
0.109375 0.09375 0
0.125 0.09375 0
0.453125 0.328125 0
0.46875 0.328125 0
0.453125 0.34375 0
0.46875 0.34375 0
0.46875 0.328125 0
0.484375 0.328125 0
0.46875 0.34375 0
0.484375 0.34375 0
0.484375 0.328125 0
0.5 0.328125 0
0.484375 0.34375 0
0.5 0.34375 0
0.453125 0.34375 0
0.46875 0.34375 0
0.453125 0.359375 0
0.46875 0.359375 0
0.453125 0.359375 0
0.46875 0.359375 0
0.453125 0.375 0
0.46875 0.375 0
0.46875 0.34375 0
0.484375 0.34375 0
0.46875 0.359375 0
0.484375 0.359375 0
0.484375 0.34375 0
0.5 0.34375 0
0.484375 0.359375 0
0.5 0.359375 0
0.078125 0.25 0
0.09375 0.25 0
0.078125 0.265625 0
0.09375 0.265625 0
0.078125 0.265625 0
0.09375 0.265625 0
0.078125 0.28125 0
0.09375 0.28125 0
0.0625 0.09375 0
0.078125 0.09375 0
0.0625 0.109375 0
0.078125 0.109375 0
0.078125 0.09375 0
0.09375 0.09375 0
0.078125 0.109375 0
0.09375 0.109375 0
0.0625 0.109375 0
0.078125 0.109375 0
0.0625 0.125 0
0.078125 0.125 0
0.078125 0.109375 0
0.09375 0.109375 0
0.078125 0.125 0
0.09375 0.125 0
0.21875 0.109375 0
0.234375 0.109375 0
0.21875 0.125 0
0.234375 0.125 0
0.09375 0.09375 0
0.109375 0.09375 0
0.09375 0.109375 0
0.109375 0.109375 0
0.109375 0.09375 0
0.125 0.09375 0
0.109375 0.109375 0
0.125 0.109375 0
0.09375 0.109375 0
0.109375 0.109375 0
0.09375 0.125 0
0.109375 0.125 0
0.109375 0.109375 0
0.125 0.109375 0
0.109375 0.125 0
0.125 0.125 0
0.125 0.03125 0
0.140625 0.03125 0
0.125 0.046875 0
0.140625 0.046875 0
0.125 0.046875 0
0.140625 0.046875 0
0.125 0.0625 0
0.140625 0.0625 0
0.90625 0.25 0
0.921875 0.25 0
0.90625 0.265625 0
0.921875 0.265625 0
0.90625 0.265625 0
0.921875 0.265625 0
0.90625 0.28125 0
0.921875 0.28125 0
0.203125 0 0
0.21875 0 0
0.203125 0.015625 0
0.21875 0.015625 0
0.203125 0.015625 0
0.21875 0.015625 0
0.203125 0.03125 0
0.21875 0.03125 0
0.21875 0 0
0.234375 0 0
0.21875 0.015625 0
0.234375 0.015625 0
0.234375 0 0
0.25 0 0
0.234375 0.015625 0
0.25 0.015625 0
0.21875 0.015625 0
0.234375 0.015625 0
0.21875 0.03125 0
0.234375 0.03125 0
0.234375 0.015625 0
0.25 0.015625 0
0.234375 0.03125 0
0.25 0.03125 0
0.203125 0.03125 0
0.21875 0.03125 0
0.203125 0.046875 0
0.21875 0.046875 0
0.203125 0.046875 0
0.21875 0.046875 0
0.203125 0.0625 0
0.21875 0.0625 0
0.21875 0.03125 0
0.234375 0.03125 0
0.21875 0.046875 0
0.234375 0.046875 0
0.234375 0.03125 0
0.25 0.03125 0
0.234375 0.046875 0
0.25 0.046875 0
0.21875 0.046875 0
0.234375 0.046875 0
0.21875 0.0625 0
0.234375 0.0625 0
0.234375 0.046875 0
0.25 0.046875 0
0.234375 0.0625 0
0.25 0.0625 0
0.125 0.0625 0
0.140625 0.0625 0
0.125 0.078125 0
0.140625 0.078125 0
0.125 0.078125 0
0.140625 0.078125 0
0.125 0.09375 0
0.140625 0.09375 0
0.140625 0.078125 0
0.15625 0.078125 0
0.140625 0.09375 0
0.15625 0.09375 0
0.15625 0.0625 0
0.171875 0.0625 0
0.15625 0.078125 0
0.171875 0.078125 0
0.5 0.328125 0
0.515625 0.328125 0
0.5 0.34375 0
0.515625 0.34375 0
0.515625 0.328125 0
0.53125 0.328125 0
0.515625 0.34375 0
0.53125 0.34375 0
0.53125 0.328125 0
0.546875 0.328125 0
0.53125 0.34375 0
0.546875 0.34375 0
0.5 0.34375 0
0.515625 0.34375 0
0.5 0.359375 0
0.515625 0.359375 0
0.515625 0.34375 0
0.53125 0.34375 0
0.515625 0.359375 0
0.53125 0.359375 0
0.53125 0.34375 0
0.546875 0.34375 0
0.53125 0.359375 0
0.546875 0.359375 0
0.53125 0.359375 0
0.546875 0.359375 0
0.53125 0.375 0
0.546875 0.375 0
0.0625 0.125 0
0.078125 0.125 0
0.0625 0.140625 0
0.078125 0.140625 0
0.078125 0.125 0
0.09375 0.125 0
0.078125 0.140625 0
0.09375 0.140625 0
0.0625 0.140625 0
0.078125 0.140625 0
0.0625 0.15625 0
0.078125 0.15625 0
0.078125 0.140625 0
0.09375 0.140625 0
0.078125 0.15625 0
0.09375 0.15625 0
0.09375 0.125 0
0.109375 0.125 0
0.09375 0.140625 0
0.109375 0.140625 0
0.109375 0.125 0
0.125 0.125 0
0.109375 0.140625 0
0.125 0.140625 0
0.09375 0.140625 0
0.109375 0.140625 0
0.09375 0.15625 0
0.109375 0.15625 0
0.109375 0.140625 0
0.125 0.140625 0
0.109375 0.15625 0
0.125 0.15625 0
0.09375 0.15625 0
0.109375 0.15625 0
0.09375 0.171875 0
0.109375 0.171875 0
0.109375 0.15625 0
0.125 0.15625 0
0.109375 0.171875 0
0.125 0.171875 0
0.09375 0.171875 0
0.109375 0.171875 0
0.09375 0.1875 0
0.109375 0.1875 0
0.109375 0.171875 0
0.125 0.171875 0
0.109375 0.1875 0
0.125 0.1875 0
0 0.125 0
0.015625 0.125 0
0 0.140625 0
[...]
POINT_DATA 35104
SCALARS U double 1
LOOKUP_TABLE default
0.1292 1.64792e-16 0.125209 1.59722e-16 -0.196136 -0.118579 -0.189553 -0.114344 0.193528 0.0771782 0.187545 0.0749042 0.187545 0.0749042 0.182054 0.0727917 0.0771597 0.193509 0.0748808 0.187521 0.0748808 0.187521 0.0727622 0.182024 0.0903119 -0.053896 0.0873065 -0.0523298 0.0873065 -0.0523298 0.0844925 -0.0510498 0.0844925 -0.0510498 0.0818189 -0.0494793 -0.0510498 -0.182655 -0.0494793 -0.17693 0.0818189 -0.0494793 0.0792309 -0.047923 -0.0494793 -0.17693 -0.047923 -0.171531 -0.0538885 0.0903155 -0.0523284 0.0873035 -0.0523284 0.0873035 -0.0510534 0.0844852 -0.182656 -0.0510534 -0.176936 -0.0494871 -0.0510534 0.0844852 -0.0494871 0.0818083 -0.176936 -0.0494871 -0.171541 -0.0479349 -0.0494871 0.0818083 -0.0479349 0.0792167 0.070489 -0.0415642 0.0686632 -0.0399654 0.0686632 -0.0399654 0.0668862 -0.0385631 0.0668862 -0.0385631 0.065201 -0.0369392 -0.0385631 -0.14095 -0.0369392 -0.13612 0.065201 -0.0369392 0.0636379 -0.0353531 -0.0369392 -0.13612 -0.0353531 -0.131482 0.0636379 -0.0353531 0.0620984 -0.0337814 -0.0353531 -0.131482 -0.0337814 -0.126981 0.0620984 -0.0337814 0.0609556 -0.0322703 -0.0337814 -0.126981 -0.0322703 -0.122699 0.148775 0.0609556 0.144686 0.0595876 0.144686 0.0595876 0.140851 0.0582919 0.0609556 -0.0322703 0.0595876 -0.0306232 0.0595876 -0.0306232 0.0582919 -0.029287 -0.0415985 0.0704519 -0.0400082 0.0686167 -0.0400082 0.0686167 -0.0386142 0.0668302 -0.140996 -0.0386142 -0.136172 -0.0369956 -0.0386142 0.0668302 -0.0369956 0.0651386 -0.136172 -0.0369956 -0.131534 -0.0354065 -0.0369956 0.0651386 -0.0354065 0.0635783 -0.131534 -0.0354065 -0.127012 -0.0338176 -0.0354065 0.0635783 -0.0338176 0.0620513 -0.127012 -0.0338176 -0.122646 -0.0322897 -0.0338176 0.0620513 -0.0322897 0.0609198 0.0792309 -0.047923 0.0771782 -0.0461243 0.0771782 -0.0461243 0.0749042 -0.0446071 0.0749042 -0.0446071 0.0727917 -0.0430973 0.0727917 -0.0430973 0.070489 -0.0415642 -0.0479349 0.0792167 -0.0461405 0.0771597 -0.0461405 0.0771597 -0.0446282 0.0748808 -0.0446282 0.0748808 -0.0431243 0.0727622 -0.0431243 0.0727622 -0.0415985 0.0704519 -0.0322897 0.0609198 -0.0306522 0.0595666 -0.0306522 0.0595666 -0.029287 0.0582919 0.0609198 0.148738 0.0595666 0.144649 0.0595666 0.144649 0.0582919 0.140851 0 0.0977437 0 0.0947499 0 0.0947499 0 0.0919773 0 0.0919773 0 0.0893701 0.0977424 1.24392e-16 0.0947486 1.20565e-16 0.0947486 1.20565e-16 0.0919764 1.16855e-16 0.0919764 1.16855e-16 0.0893696 1.1326e-16 0.384849 0.465326 0.37872 0.45775 0.37872 0.45775 0.372955 0.450753 0.451238 0.545445 0.444123 0.536846 0.545445 0.627845 0.536846 0.61792 0.444123 0.536846 0.437124 0.52839 0.536846 0.61792 0.52839 0.608214 0.627845 0.696653 0.61792 0.685589 0.61792 0.685589 0.608214 0.674704 0.437124 0.52839 0.430236 0.520075 0.52839 0.608214 0.520075 0.598662 0.430236 0.520075 0.423452 0.511879 0.520075 0.598662 0.511879 0.589254 0.608214 0.674704 0.598662 0.664474 0.598662 0.664474 0.589254 0.653875 0.664474 0.715697 0.653875 0.704303 0.46533 0.384852 0.457755 0.378724 0.457755 0.378724 0.450758 0.372959 0.423452 0.511879 0.416769 0.503797 0.511879 0.589254 0.503797 0.579925 0.416769 0.503797 0.410185 0.495829 0.503797 0.579925 0.495829 0.570735 0.589254 0.653875 0.579925 0.643516 0.653875 0.704303 0.643516 0.693199 0.579925 0.643516 0.570735 0.633274 0.643516 0.693199 0.633274 0.682243 -0.533185 -0.564293 -0.525074 -0.555674 -0.564293 -0.583158 -0.555674 -0.574312 -0.583158 -0.589496 -0.574312 -0.580577 -0.525074 -0.555674 -0.51706 -0.547198 -0.51706 -0.547198 -0.509537 -0.538941 -0.555674 -0.574312 -0.547198 -0.565692 -0.574312 -0.580577 -0.565692 -0.571792 0.423119 0.486954 0.416329 0.479252 0.416329 0.479252 0.409895 0.471725 0.410185 0.495829 0.403704 0.487988 0.495829 0.570735 0.487988 0.561689 0.403704 0.487988 0.397327 0.48028 0.487988 0.561689 0.48028 0.552806 0.640167 0.5828 0.629861 0.573415 0.570735 0.633274 0.561689 0.6232 0.633274 0.682243 0.6232 0.671003 0.561689 0.6232 0.552806 0.613307 0.6232 0.671003 0.613307 0.660494 0.727006 0.76341 0.715697 0.751168 0.715697 0.751168 0.704303 0.739273 0.486962 0.423126 0.479261 0.416337 0.479261 0.416337 0.471736 0.409904 0.764729 0.716303 0.752603 0.704938 0.752603 0.704938 0.740681 0.693762 0.716303 0.652371 0.704938 0.641997 0.652371 0.574317 0.641997 0.565148 0.704938 0.641997 0.693762 0.631792 0.641997 0.565148 0.631792 0.556124 0.740681 0.693762 0.728963 0.682803 0.728963 0.682803 0.71749 0.672113 0.693762 0.631792 0.682803 0.621772 0.631792 0.556124 0.621772 0.547221 0.682803 0.621772 0.672113 0.612005 0.621772 0.547221 0.612005 0.538417 0.704303 0.739273 0.693199 0.728018 0.693199 0.728018 0.682243 0.716582 0.728018 0.746962 0.716582 0.734672 0.758655 0.761435 0.746962 0.749385 -0.589496 -0.583152 -0.580577 -0.574306 -0.583152 -0.564279 -0.574306 -0.555663 -0.564279 -0.533162 -0.555663 -0.525058 -0.580577 -0.574306 -0.571792 -0.565687 -0.574306 -0.555663 -0.565687 -0.547187 -0.555663 -0.525058 -0.547187 -0.517046 -0.547187 -0.517046 -0.538931 -0.509522 0.397327 0.48028 0.391057 0.472713 0.48028 0.552806 0.472713 0.544094 0.391057 0.472713 0.384849 0.465326 0.472713 0.544094 0.465326 0.53559 0.552806 0.613307 0.544094 0.603646 0.613307 0.660494 0.603646 0.650097 0.544094 0.603646 0.53559 0.594105 0.603646 0.650097 0.594105 0.639859 0.53559 0.594105 0.526885 0.584713 0.594105 0.639859 0.584713 0.629753 0.526885 0.584713 0.518662 0.575453 0.584713 0.629753 0.575453 0.619782 0 0.104927 0 0.103265 0.104927 0.207588 0.103265 0.204301 0 0.103265 0 0.101627 0.103265 0.204301 0.101627 0.201059 0.702596 0.689978 0.691694 0.678895 0.689376 0.691694 0.678263 0.680627 0.691694 0.678895 0.680627 0.668141 0.678263 0.680627 0.667477 0.669799 0.680627 0.668141 0.669799 0.657579 0.518662 0.575453 0.510487 0.566419 0.575453 0.619782 0.566419 0.609896 0.510487 0.566419 0.502461 0.55753 0.566419 0.609896 0.55753 0.600636 0.502461 0.55753 0.494489 0.548816 0.55753 0.600636 0.548816 0.591156 0.494489 0.548816 0.486954 0.540192 0.548816 0.591156 0.540192 0.581803 0.667477 0.669799 0.656803 0.65922 0.669799 0.657579 0.65922 0.647175 0.656803 0.65922 0.646787 0.648811 0.65922 0.647175 0.648811 0.6369 0.600636 0.630849 0.591156 0.620618 0.630849 0.646787 0.620618 0.63655 0.591156 0.620618 0.581803 0.610773 0.620618 0.63655 0.610773 0.626461 0.646787 0.648811 0.63655 0.638609 0.648811 0.6369 0.638609 0.626675 0.63655 0.638609 0.626461 0.628529 0.638609 0.626675 0.628529 0.617049 -0.441123 -0.479272 -0.434429 -0.471646 -0.434429 -0.471646 -0.427822 -0.464816 -0.427822 -0.464816 -0.421297 -0.457734 -0.464816 -0.491765 -0.457734 -0.484263 -0.421297 -0.457734 -0.415062 -0.450861 -0.457734 -0.484263 -0.450861 -0.476923 0.629861 0.573415 0.619824 0.564265 0.619824 0.564265 0.609929 0.555181 0.609929 0.555181 0.600125 0.546206 0.600125 0.546206 0.59092 0.537792 0.574317 0.483831 0.565148 0.476053 0.483831 0.382872 0.476053 0.376643 0.565148 0.476053 0.556124 0.468404 0.476053 0.376643 0.468404 0.370513 0.556124 0.468404 0.547221 0.460892 0.468404 0.370513 0.460892 0.364559 0.547221 0.460892 0.538417 0.453204 0.631261 0.59092 0.621075 0.581482 0.621075 0.581482 0.61119 0.5722 0.59092 0.537792 0.581482 0.529223 0.537792 0.47319 0.529223 0.465434 0.581482 0.529223 0.5722 0.520746 0.529223 0.465434 0.520746 0.457928 0.61119 0.5722 0.601464 0.563216 0.5722 0.520746 0.563216 0.512346 0.520746 0.457928 0.512346 0.450574 0.512346 0.450574 0.504141 0.443379 0.260223 0.150407 0.255952 0.147758 -0.515259 -0.601806 -0.507462 -0.592661 -0.507462 -0.592661 -0.499791 -0.583678 0.538417 0.453204 0.529403 0.445917 0.529403 0.445917 0.521083 0.438753 -0.499791 -0.583678 -0.492228 -0.574831 -0.492228 -0.574831 -0.484823 -0.565978 0 0.101627 0 0.100031 0.101627 0.201059 0.100031 0.197839 0 0.100031 0 0.0984645 0.100031 0.197839 0.0984645 0.194848 -0.484823 -0.565978 -0.477536 -0.557651 -0.477536 -0.557651 -0.470382 -0.549134 -0.557651 -0.625605 -0.549134 -0.615973 -0.470382 -0.549134 -0.463323 -0.540815 -0.549134 -0.615973 -0.540815 -0.606629 -0.463323 -0.540815 -0.456399 -0.532704 -0.540815 -0.606629 -0.532704 -0.597359 -0.675325 -0.734226 -0.665018 -0.722971 -0.665018 -0.722971 -0.654954 -0.711879 -0.479259 -0.441106 -0.471635 -0.434415 -0.471635 -0.434415 -0.464807 -0.427811 -0.491758 -0.464807 -0.484258 -0.457727 -0.464807 -0.427811 -0.457727 -0.421288 -0.484258 -0.457727 -0.476919 -0.450855 -0.457727 -0.421288 -0.450855 -0.415055 -0.654954 -0.711879 -0.645066 -0.701547 -0.645066 -0.701547 -0.635341 -0.691031 -0.701547 -0.742979 -0.691031 -0.73156 -0.742979 -0.767989 -0.73156 -0.756239 -0.767989 -0.776397 -0.756239 -0.764511 -0.404867 -0.472223 -0.398874 -0.465219 -0.472223 -0.529547 -0.465219 -0.521613 -0.398874 -0.465219 -0.392955 -0.458275 -0.465219 -0.521613 -0.458275 -0.51378 -0.392955 -0.458275 -0.387107 -0.451423 -0.458275 -0.51378 -0.451423 -0.506076 -0.387107 -0.451423 -0.381337 -0.444656 -0.451423 -0.506076 -0.444656 -0.498489 -0.529547 -0.57556 -0.521613 -0.566809 -0.57556 -0.609034 -0.566809 -0.599817 -0.521613 -0.566809 -0.51378 -0.558257 -0.566809 -0.599817 -0.558257 -0.590732 -0.609034 -0.6295 -0.599817 -0.619907 -0.6295 -0.636357 -0.619907 -0.626655 -0.599817 -0.619907 -0.590732 -0.6105 -0.619907 -0.626655 -0.6105 -0.617133 -0.51378 -0.558257 -0.506076 -0.549854 -0.558257 -0.590732 -0.549854 -0.58181 -0.506076 -0.549854 -0.498489 -0.541659 -0.549854 -0.58181 -0.541659 -0.573004 -0.590732 -0.6105 -0.58181 -0.601249 -0.6105 -0.617133 -0.601249 -0.607776 -0.58181 -0.601249 -0.573004 -0.592141 -0.601249 -0.607776 -0.592141 -0.598568 0.415333 0.460908 0.408797 0.453311 0.408797 0.453311 0.40237 0.446523 0.40237 0.446523 0.396097 0.439482 0.446523 0.480856 0.439482 0.473264 0.396097 0.439482 0.389893 0.432712 0.439482 0.473264 0.432712 0.465819 -0.381337 -0.444656 -0.375653 -0.438115 -0.444656 -0.498489 -0.438115 -0.490779 -0.0776521 -0.191783 -0.0766936 -0.188928 -0.0766936 -0.188928 -0.0757577 -0.186296 0.382872 0.483831 0.376644 0.476054 0.483831 0.574317 0.476054 0.565149 0.376644 0.476054 0.370517 0.468407 0.476054 0.565149 0.468407 0.556127 0.456809 0.506805 0.44964 0.498854 0.44964 0.498854 0.44261 0.491232 0.498854 0.537426 0.491232 0.528853 0.150413 0.260229 0.147766 0.255959 0.370517 0.468407 0.364564 0.460897 0.468407 0.556127 0.460897 0.547225 0.460897 0.547225 0.45321 0.538422 0.45321 0.538422 0.445925 0.529409 0.445925 0.529409 0.438762 0.521091 0 0.119176 0 0.117295 0.119176 0.235771 0.117295 0.23205 0 0.117295 0 0.115443 0.117295 0.23205 0.115443 0.22839 0.537426 0.564078 0.528853 0.555115 0.564078 0.578535 0.555115 0.569385 0.578535 0.58042 0.569385 0.571256 0.58042 0.56971 0.571256 0.560617 0.528853 0.555115 0.520127 0.546252 0.555115 0.569385 0.546252 0.560467 0.520127 0.546252 0.512297 0.537635 0.569385 0.571256 0.560467 0.562231 0.571256 0.560617 0.562231 0.551835 0.55515 0.51968 0.546336 0.511061 0.56971 0.546336 0.560617 0.537761 0.546336 0.511061 0.537761 0.503296 0.560617 0.537761 0.551835 0.529205 0.537761 0.503296 0.529205 0.495304 0.529205 0.495304 0.520822 0.487421 0.503296 0.458031 0.495304 0.45055 0.458031 0.402397 0.45055 0.396008 0.495304 0.45055 0.487421 0.443344 0.45055 0.396008 0.443344 0.38947 0.443344 0.38947 0.436298 0.383325 0.479708 0.436298 0.472116 0.429531 0.436298 0.383325 0.429531 0.377248 0.660498 0.613311 0.650101 0.60365 0.613311 0.552809 0.60365 0.544097 0.650101 0.60365 0.639864 0.59411 0.60365 0.544097 0.59411 0.535594 0.552809 0.480282 0.544097 0.472716 0.480282 0.39733 0.472716 0.39106 0.544097 0.472716 0.535594 0.46533 0.472716 0.39106 0.46533 0.384852 0.473392 0.442785 0.465604 0.435806 0.465604 0.435806 0.458632 0.428931 0.639864 0.59411 0.629759 0.584718 0.59411 0.535594 0.584718 0.52689 0.629759 0.584718 0.619789 0.575459 0.584718 0.52689 0.575459 0.518667 0.389484 0.443358 0.38334 0.436313 0.38334 0.436313 0.377264 0.429547 0.436313 0.479723 0.429547 0.472132 0.619789 0.575459 0.609903 0.566426 0.575459 0.518667 0.566426 0.510493 0.609903 0.566426 0.600644 0.557537 0.566426 0.510493 0.557537 0.502467 0.600644 0.557537 0.591165 0.548824 0.557537 0.502467 0.548824 0.494497 0.591165 0.548824 0.581812 0.540201 0.548824 0.494497 0.540201 0.486962 0.442851 0.473367 0.435889 0.465954 0.435889 0.465954 0.429052 0.458793 0.465954 0.48582 0.458793 0.478201 -0.734226 -0.675325 -0.72297 -0.665017 -0.72297 -0.665017 -0.711877 -0.654952 -0.456399 -0.532704 -0.449603 -0.524738 -0.532704 -0.597359 -0.524738 -0.588685 -0.449603 -0.524738 -0.44291 -0.516906 -0.524738 -0.588685 -0.516906 -0.579777 -0.776397 -0.767988 -0.764511 -0.756238 -0.767988 -0.742977 -0.756238 -0.731558 -0.44291 -0.516906 -0.43631 -0.509114 -0.516906 -0.579777 -0.509114 -0.571074 -0.43631 -0.509114 -0.429801 -0.50145 -0.509114 -0.571074 -0.50145 -0.562149 -0.711877 -0.654952 -0.701544 -0.645063 -0.742977 -0.701544 -0.731558 -0.691028 -0.701544 -0.645063 -0.691028 -0.635337 0.460933 0.415359 0.453335 0.408824 0.453335 0.408824 0.446541 0.402395 -0.636357 -0.629498 -0.626655 -0.619899 -0.629498 -0.609022 -0.619899 -0.599795 -0.626655 -0.619899 -0.617133 -0.610491 -0.619899 -0.599795 -0.610491 -0.590712 -0.588685 -0.63988 -0.579777 -0.630069 -0.579777 -0.630069 -0.571074 -0.620681 0.480875 0.446541 0.47327 0.439478 0.446541 0.402395 0.439478 0.396114 0.47327 0.439478 0.465833 0.432573 0.439478 0.396114 0.432573 0.389895 -0.609022 -0.575493 -0.599795 -0.566769 -0.575493 -0.529434 -0.566769 -0.521577 -0.599795 -0.566769 -0.590712 -0.558231 -0.566769 -0.521577 -0.558231 -0.513759 0.465833 0.432573 0.458532 0.425795 0.432573 0.389895 0.425795 0.383786 0.458532 0.425795 0.45136 0.419144 0.425795 0.383786 0.419144 0.377789 -0.617133 -0.610491 -0.607776 -0.601241 -0.610491 -0.590712 -0.601241 -0.581793 -0.607776 -0.601241 -0.598568 -0.592134 -0.601241 -0.581793 -0.592134 -0.572989 -0.593007 -0.627499 -0.584027 -0.617977 -0.590712 -0.558231 -0.581793 -0.549828 -0.558231 -0.513759 -0.549828 -0.506039 -0.581793 -0.549828 -0.572989 -0.541633 -0.549828 -0.506039 -0.541633 -0.498437 0.519692 0.555162 0.511073 0.546349 0.511073 0.546349 0.503309 0.537775 0.546349 0.569724 0.537775 0.560632 0.40241 0.458044 0.396022 0.450563 0.458044 0.503309 0.450563 0.495318 0.396022 0.450563 0.389484 0.443358 0.450563 0.495318 0.443358 0.487436 0.503309 0.537775 0.495318 0.52922 0.537775 0.560632 0.52922 0.551851 0.495318 0.52922 0.487436 0.520838 0.451364 0.473694 0.444307 0.466359 0.444307 0.466359 0.437316 0.459186 0.466359 0.478253 0.459186 0.470854 -0.529434 -0.472245 -0.521577 -0.465193 -0.472245 -0.404877 -0.465193 -0.398855 -0.521577 -0.465193 -0.513759 -0.458263 -0.465193 -0.398855 -0.458263 -0.392922 -0.513759 -0.458263 -0.506039 -0.451456 -0.458263 -0.392922 -0.451456 -0.387151 -0.506039 -0.451456 -0.498437 -0.444486 0.478221 0.458632 0.470708 0.451398 0.458632 0.428931 0.451398 0.422205 0.470708 0.451398 0.463372 0.444369 0.451398 0.422205 0.444369 0.415562 -0.498437 -0.444486 -0.490745 -0.437984 0 0.115443 0 0.113621 0.115443 0.22839 0.113621 0.224786 0 0.113621 0 0.111827 0.113621 0.224786 0.111827 0.221239 0.486954 0.540192 0.479252 0.531701 0.540192 0.581803 0.531701 0.572615 0.479252 0.531701 0.471725 0.523286 0.531701 0.572615 0.523286 0.563578 0.471725 0.523286 0.46405 0.515014 0.523286 0.563578 0.515014 0.554685 0.46405 0.515014 0.456809 0.506805 0.515014 0.554685 0.506805 0.54602 0.569724 0.580435 0.560632 0.571272 0.580435 0.57855 0.571272 0.569401 0.57855 0.564094 0.569401 0.555132 0.564094 0.537442 0.555132 0.52887 0.560632 0.571272 0.551851 0.562248 0.571272 0.569401 0.562248 0.560485 0.569401 0.555132 0.560485 0.546271 0.555132 0.52887 0.546271 0.520147 0.546271 0.520147 0.537655 0.512319 0.581803 0.610773 0.572615 0.601116 0.610773 0.626461 0.601116 0.616557 0.572615 0.601116 0.563578 0.591626 0.601116 0.616557 0.591626 0.606821 0.626461 0.628529 0.616557 0.618615 0.628529 0.617049 0.618615 0.607245 0.616557 0.618615 0.606821 0.608827 0.618615 0.607245 0.608827 0.597596 0.506819 0.456822 0.49887 0.449656 0.537442 0.49887 0.52887 0.491249 0.49887 0.449656 0.491249 0.442627 0.563578 0.591626 0.554685 0.582304 0.591626 0.606821 0.582304 0.597244 0.554685 0.582304 0.54602 0.573128 0.582304 0.597244 0.573128 0.587822 0.606821 0.608827 0.597244 0.599207 0.608827 0.597596 0.599207 0.588113 0.597244 0.599207 0.587822 0.589742 0.599207 0.588113 0.589742 0.578876 0.617049 0.592212 0.607245 0.582657 0.592212 0.554265 0.582657 0.545347 0.607245 0.582657 0.597596 0.573361 0.582657 0.545347 0.573361 0.536637 0.554265 0.504141 0.545347 0.496146 0.504141 0.443379 0.496146 0.436053 0.545347 0.496146 0.536637 0.488197 0.496146 0.436053 0.488197 0.429133 0.597596 0.573361 0.588113 0.564237 0.573361 0.536637 0.564237 0.528094 0.588113 0.564237 0.578876 0.55515 0.564237 0.528094 0.55515 0.51968 -0.601806 -0.515259 -0.59266 -0.50746 -0.59266 -0.50746 -0.583675 -0.499787 0.536637 0.488197 0.528094 0.480447 0.488197 0.429133 0.480447 0.422212 0.528094 0.480447 0.51968 0.472965 0.480447 0.422212 0.472965 0.415638 -0.583675 -0.499787 -0.574827 -0.492224 -0.574827 -0.492224 -0.565974 -0.484818 0.574317 0.652371 0.565149 0.641999 0.652371 0.716303 0.641999 0.704939 0.565149 0.641999 0.556127 0.631795 0.641999 0.704939 0.631795 0.693764 -0.565974 -0.484818 -0.557648 -0.477531 -0.625602 -0.557648 -0.615972 -0.549133 -0.557648 -0.477531 -0.549133 -0.470379 0.716303 0.764729 0.704939 0.752604 0.704939 0.752604 0.693764 0.740683 -0.615972 -0.549133 -0.606632 -0.54082 -0.549133 -0.470379 -0.54082 -0.463325 -0.606632 -0.54082 -0.59737 -0.532724 -0.54082 -0.463325 -0.532724 -0.456413 0.556127 0.631795 0.547225 0.621775 0.631795 0.693764 0.621775 0.682806 0.547225 0.621775 0.538422 0.61201 0.621775 0.682806 0.61201 0.672117 -0.639864 -0.588714 -0.629981 -0.579784 -0.629981 -0.579784 -0.620389 -0.570693 -0.620389 -0.570693 -0.610956 -0.562151 -0.59737 -0.532724 -0.588714 -0.524795 -0.532724 -0.456413 -0.524795 -0.449645 -0.588714 -0.524795 -0.579784 -0.51715 -0.524795 -0.449645 -0.51715 -0.443004 0.693764 0.740683 0.682806 0.728966 0.682806 0.728966 0.672117 0.717494 0.763411 0.727007 0.751169 0.715698 0.751169 0.715698 0.739276 0.704305 -0.610956 -0.562151 -0.601684 -0.553675 -0.601684 -0.553675 -0.593013 -0.545721 -0.627567 -0.593013 -0.617979 -0.584242 -0.593013 -0.545721 -0.584242 -0.537503 0.20759 0.104927 0.204303 0.103266 0.104927 2.63337e-16 0.103266 2.59254e-16 0.204303 0.103266 0.20106 0.101627 0.103266 2.59254e-16 0.101627 2.55235e-16 -0.545721 -0.486884 -0.537503 -0.479434 -0.486884 -0.417244 -0.479434 -0.411005 -0.537503 -0.479434 -0.529434 -0.472245 -0.479434 -0.411005 -0.472245 -0.404877 0.582808 0.640174 0.573424 0.629869 0.573424 0.629869 0.564275 0.619833 0.564275 0.619833 0.555192 0.609938 0.555192 0.609938 0.546218 0.600135 0.546218 0.600135 0.537803 0.59093 0.473203 0.537803 0.465447 0.529235 0.537803 0.59093 0.529235 0.581492 0.465447 0.529235 0.457942 0.520757 0.529235 0.581492 0.520757 0.572211 0.59093 0.63127 0.581492 0.621084 0.581492 0.621084 0.572211 0.6112 0.457942 0.520757 0.450587 0.512358 0.520757 0.572211 0.512358 0.563226 0.450587 0.512358 0.443391 0.504153 0.572211 0.6112 0.563226 0.601474 0.761438 0.758658 0.749388 0.746966 0.739276 0.704305 0.728021 0.693201 0.746966 0.728021 0.734676 0.716586 0.728021 0.693201 0.716586 0.682247 0.696653 0.627845 0.68559 0.617921 0.68559 0.617921 0.674705 0.608215 0.473751 0.45136 0.466363 0.444284 0.478244 0.466363 0.470829 0.459185 0.466363 0.444284 0.459185 0.437331 0.627845 0.545445 0.617921 0.536846 0.545445 0.451238 0.536846 0.444124 0.617921 0.536846 0.608215 0.528391 0.536846 0.444124 0.528391 0.437125 0.674705 0.608215 0.664475 0.598663 0.715698 0.664475 0.704305 0.653877 0.664475 0.598663 0.653877 0.589256 0.608215 0.528391 0.598663 0.520076 0.528391 0.437125 0.520076 0.430237 0.598663 0.520076 0.589256 0.51188 0.520076 0.430237 0.51188 0.423453 0.704305 0.653877 0.693201 0.643518 0.653877 0.589256 0.643518 0.579927 0.693201 0.643518 0.682247 0.633277 0.643518 0.579927 0.633277 0.570738 0.589256 0.51188 0.579927 0.503799 0.51