# vtk DataFile Version 3.0
#This file was generated by the deal.II library on 2018/12/4 at 0:47:15
ASCII
DATASET UNSTRUCTURED_GRID

POINTS 160 double
0 0.25 0
0.25 0.25 0
0 0.5 0
0.25 0.5 0
0.75 0.25 0
1 0.25 0
0.75 0.5 0
1 0.5 0
0 0.5 0
0.25 0.5 0
0 0.75 0
0.25 0.75 0
0 0.75 0
0.25 0.75 0
0 1 0
0.25 1 0
0.25 0.75 0
0.5 0.75 0
0.25 1 0
0.5 1 0
0.75 0.5 0
1 0.5 0
0.75 0.75 0
1 0.75 0
0.5 0.75 0
0.75 0.75 0
0.5 1 0
0.75 1 0
0.75 0.75 0
1 0.75 0
0.75 1 0
1 1 0
0 0 0
0.125 0 0
0 0.125 0
0.125 0.125 0
0.125 0 0
0.25 0 0
0.125 0.125 0
0.25 0.125 0
0 0.125 0
0.125 0.125 0
0 0.25 0
0.125 0.25 0
0.125 0.125 0
0.25 0.125 0
0.125 0.25 0
0.25 0.25 0
0.25 0 0
0.375 0 0
0.25 0.125 0
0.375 0.125 0
0.375 0 0
0.5 0 0
0.375 0.125 0
0.5 0.125 0
0.25 0.125 0
0.375 0.125 0
0.25 0.25 0
0.375 0.25 0
0.375 0.125 0
0.5 0.125 0
0.375 0.25 0
0.5 0.25 0
0.25 0.25 0
0.375 0.25 0
0.25 0.375 0
0.375 0.375 0
0.375 0.25 0
0.5 0.25 0
0.375 0.375 0
0.5 0.375 0
0.25 0.375 0
0.375 0.375 0
0.25 0.5 0
0.375 0.5 0
0.375 0.375 0
0.5 0.375 0
0.375 0.5 0
0.5 0.5 0
0.5 0 0
0.625 0 0
0.5 0.125 0
0.625 0.125 0
0.625 0 0
0.75 0 0
0.625 0.125 0
0.75 0.125 0
0.5 0.125 0
0.625 0.125 0
0.5 0.25 0
0.625 0.25 0
0.625 0.125 0
0.75 0.125 0
0.625 0.25 0
0.75 0.25 0
0.75 0 0
0.875 0 0
0.75 0.125 0
0.875 0.125 0
0.875 0 0
1 0 0
0.875 0.125 0
1 0.125 0
0.75 0.125 0
0.875 0.125 0
0.75 0.25 0
0.875 0.25 0
0.875 0.125 0
1 0.125 0
0.875 0.25 0
1 0.25 0
0.5 0.25 0
0.625 0.25 0
0.5 0.375 0
0.625 0.375 0
0.625 0.25 0
0.75 0.25 0
0.625 0.375 0
0.75 0.375 0
0.5 0.375 0
0.625 0.375 0
0.5 0.5 0
0.625 0.5 0
0.625 0.375 0
0.75 0.375 0
0.625 0.5 0
0.75 0.5 0
0.25 0.5 0
0.375 0.5 0
0.25 0.625 0
0.375 0.625 0
0.375 0.5 0
0.5 0.5 0
0.375 0.625 0
0.5 0.625 0
0.25 0.625 0
0.375 0.625 0
0.25 0.75 0
0.375 0.75 0
0.375 0.625 0
0.5 0.625 0
0.375 0.75 0
0.5 0.75 0
0.5 0.5 0
0.625 0.5 0
0.5 0.625 0
0.625 0.625 0
0.625 0.5 0
0.75 0.5 0
0.625 0.625 0
0.75 0.625 0
0.5 0.625 0
0.625 0.625 0
0.5 0.75 0
0.625 0.75 0
0.625 0.625 0
0.75 0.625 0
0.625 0.75 0
0.75 0.75 0

CELLS 40 200
4	0	1	3	2
4	4	5	7	6
4	8	9	11	10
4	12	13	15	14
4	16	17	19	18
4	20	21	23	22
4	24	25	27	26
4	28	29	31	30
4	32	33	35	34
4	36	37	39	38
4	40	41	43	42
4	44	45	47	46
4	48	49	51	50
4	52	53	55	54
4	56	57	59	58
4	60	61	63	62
4	64	65	67	66
4	68	69	71	70
4	72	73	75	74
4	76	77	79	78
4	80	81	83	82
4	84	85	87	86
4	88	89	91	90
4	92	93	95	94
4	96	97	99	98
4	100	101	103	102
4	104	105	107	106
4	108	109	111	110
4	112	113	115	114
4	116	117	119	118
4	120	121	123	122
4	124	125	127	126
4	128	129	131	130
4	132	133	135	134
4	136	137	139	138
4	140	141	143	142
4	144	145	147	146
4	148	149	151	150
4	152	153	155	154
4	156	157	159	158

CELL_TYPES 40
 9 9 9 9 9 9 9 9 9 9 9 9 9 9 9 9 9 9 9 9 9 9 9 9 9 9 9 9 9 9 9 9 9 9 9 9 9 9 9 9
POINT_DATA 160
SCALARS U double 1
LOOKUP_TABLE default
0 0.61438 0 0.413032 0.61438 2.80461e-16 0.413032 2.18423e-16 0 0.413032 0 0.316141 0 0.316141 0 0.254979 0.316141 -0.498103 0.254979 -0.360595 0.413032 2.18423e-16 0.316141 1.70108e-16 -0.498103 0.316141 -0.360595 0.254979 0.316141 1.70108e-16 0.254979 1.3248e-16 0 0.905585 0 0.7699 0.905585 0.693105 0.7699 0.578371 0 0.7699 0 0.30719 0.7699 0.578371 0.30719 0.61438 0.693105 -0.375106 0.578371 -0.324245 -0.375106 -0.980199 -0.324245 -0.862404 0.578371 -0.324245 0.61438 -0.283331 -0.324245 -0.862404 -0.283331 -0.760715 0.61438 -0.283331 0.513706 -0.247611 -0.283331 -0.760715 -0.247611 -0.67186 0.513706 -0.247611 0.413032 -0.224819 -0.247611 -0.67186 -0.224819 -0.591892 -0.980199 -0.375106 -0.862404 -0.324245 -0.375106 0.693105 -0.324245 0.578371 -0.862404 -0.324245 -0.760715 -0.283331 -0.324245 0.578371 -0.283331 0.61438 0.693105 0.905585 0.578371 0.7699 0.905585 3.60119e-16 0.7699 3.17804e-16 0.578371 0.7699 0.61438 0.30719 0.7699 3.17804e-16 0.30719 2.80461e-16 -0.760715 -0.283331 -0.67186 -0.247611 -0.283331 0.61438 -0.247611 0.513706 -0.67186 -0.247611 -0.591892 -0.224819 -0.247611 0.513706 -0.224819 0.413032 0.413032 -0.224819 0.364587 -0.197904 -0.224819 -0.591892 -0.197904 -0.508652 0.364587 -0.197904 0.316141 -0.0909808 -0.197904 -0.508652 -0.0909808 -0.498103 -0.591892 -0.224819 -0.508652 -0.197904 -0.224819 0.413032 -0.197904 0.364587 -0.508652 -0.197904 -0.498103 -0.0909808 -0.197904 0.364587 -0.0909808 0.316141 
