# vtk DataFile Version 3.0
#This file was generated by the deal.II library on 2018/12/4 at 0:47:15
ASCII
DATASET UNSTRUCTURED_GRID

POINTS 5260 double
0 0.1875 0
0.0625 0.1875 0
0 0.25 0
0.0625 0.25 0
0.9375 0.1875 0
1 0.1875 0
0.9375 0.25 0
1 0.25 0
0 0.25 0
0.0625 0.25 0
0 0.3125 0
0.0625 0.3125 0
0.3125 0.1875 0
0.375 0.1875 0
0.3125 0.25 0
0.375 0.25 0
0.9375 0.25 0
1 0.25 0
0.9375 0.3125 0
1 0.3125 0
0.3125 0.25 0
0.375 0.25 0
0.3125 0.3125 0
0.375 0.3125 0
0.3125 0.3125 0
0.375 0.3125 0
0.3125 0.375 0
0.375 0.375 0
0.625 0.3125 0
0.6875 0.3125 0
0.625 0.375 0
0.6875 0.375 0
0.3125 0.375 0
0.375 0.375 0
0.3125 0.4375 0
0.375 0.4375 0
0.25 0.4375 0
0.3125 0.4375 0
0.25 0.5 0
0.3125 0.5 0
0.3125 0.4375 0
0.375 0.4375 0
0.3125 0.5 0
0.375 0.5 0
0.3125 0.5 0
0.375 0.5 0
0.3125 0.5625 0
0.375 0.5625 0
0.25 0.5625 0
0.3125 0.5625 0
0.25 0.625 0
0.3125 0.625 0
0.3125 0.5625 0
0.375 0.5625 0
0.3125 0.625 0
0.375 0.625 0
0.375 0.625 0
0.4375 0.625 0
0.375 0.6875 0
0.4375 0.6875 0
0.375 0.6875 0
0.4375 0.6875 0
0.375 0.75 0
0.4375 0.75 0
0 0.75 0
0.0625 0.75 0
0 0.8125 0
0.0625 0.8125 0
0.0625 0.75 0
0.125 0.75 0
0.0625 0.8125 0
0.125 0.8125 0
0 0.8125 0
0.0625 0.8125 0
0 0.875 0
0.0625 0.875 0
0.0625 0.8125 0
0.125 0.8125 0
0.0625 0.875 0
0.125 0.875 0
0.625 0.375 0
0.6875 0.375 0
0.625 0.4375 0
0.6875 0.4375 0
0.625 0.4375 0
0.6875 0.4375 0
0.625 0.5 0
0.6875 0.5 0
0.6875 0.4375 0
0.75 0.4375 0
0.6875 0.5 0
0.75 0.5 0
0 0.375 0
0.0625 0.375 0
0 0.4375 0
0.0625 0.4375 0
0.625 0.5 0
0.6875 0.5 0
0.625 0.5625 0
0.6875 0.5625 0
0.625 0.5625 0
0.6875 0.5625 0
0.625 0.625 0
0.6875 0.625 0
0.6875 0.5625 0
0.75 0.5625 0
0.6875 0.625 0
0.75 0.625 0
0.5625 0.625 0
0.625 0.625 0
0.5625 0.6875 0
0.625 0.6875 0
0.5625 0.6875 0
0.625 0.6875 0
0.5625 0.75 0
0.625 0.75 0
0.875 0.75 0
0.9375 0.75 0
0.875 0.8125 0
0.9375 0.8125 0
0.9375 0.75 0
1 0.75 0
0.9375 0.8125 0
1 0.8125 0
0.875 0.8125 0
0.9375 0.8125 0
0.875 0.875 0
0.9375 0.875 0
0.9375 0.8125 0
1 0.8125 0
0.9375 0.875 0
1 0.875 0
0.9375 0.375 0
1 0.375 0
0.9375 0.4375 0
1 0.4375 0
0 0.5 0
0.0625 0.5 0
0 0.5625 0
0.0625 0.5625 0
0.0625 0.5 0
0.125 0.5 0
0.0625 0.5625 0
0.125 0.5625 0
0.0625 0.5625 0
0.125 0.5625 0
0.0625 0.625 0
0.125 0.625 0
0.1875 0.5625 0
0.25 0.5625 0
0.1875 0.625 0
0.25 0.625 0
0.1875 0.625 0
0.25 0.625 0
0.1875 0.6875 0
0.25 0.6875 0
0.1875 0.6875 0
0.25 0.6875 0
0.1875 0.75 0
0.25 0.75 0
0.25 0.75 0
0.3125 0.75 0
0.25 0.8125 0
0.3125 0.8125 0
0.3125 0.75 0
0.375 0.75 0
0.3125 0.8125 0
0.375 0.8125 0
0.25 0.8125 0
0.3125 0.8125 0
0.25 0.875 0
0.3125 0.875 0
0.3125 0.8125 0
0.375 0.8125 0
0.3125 0.875 0
0.375 0.875 0
0.375 0.75 0
0.4375 0.75 0
0.375 0.8125 0
0.4375 0.8125 0
0.4375 0.75 0
0.5 0.75 0
0.4375 0.8125 0
0.5 0.8125 0
0.375 0.8125 0
0.4375 0.8125 0
0.375 0.875 0
0.4375 0.875 0
0.4375 0.8125 0
0.5 0.8125 0
0.4375 0.875 0
0.5 0.875 0
0.25 0.875 0
0.3125 0.875 0
0.25 0.9375 0
0.3125 0.9375 0
0.3125 0.875 0
0.375 0.875 0
0.3125 0.9375 0
0.375 0.9375 0
0.25 0.9375 0
0.3125 0.9375 0
0.25 1 0
0.3125 1 0
0.3125 0.9375 0
0.375 0.9375 0
0.3125 1 0
0.375 1 0
0.375 0.875 0
0.4375 0.875 0
0.375 0.9375 0
0.4375 0.9375 0
0.4375 0.875 0
0.5 0.875 0
0.4375 0.9375 0
0.5 0.9375 0
0.375 0.9375 0
0.4375 0.9375 0
0.375 1 0
0.4375 1 0
0.4375 0.9375 0
0.5 0.9375 0
0.4375 1 0
0.5 1 0
0.75 0.5625 0
0.8125 0.5625 0
0.75 0.625 0
0.8125 0.625 0
0.875 0.5 0
0.9375 0.5 0
0.875 0.5625 0
0.9375 0.5625 0
0.9375 0.5 0
1 0.5 0
0.9375 0.5625 0
1 0.5625 0
0.75 0.625 0
0.8125 0.625 0
0.75 0.6875 0
0.8125 0.6875 0
0.75 0.6875 0
0.8125 0.6875 0
0.75 0.75 0
0.8125 0.75 0
0.5 0.75 0
0.5625 0.75 0
0.5 0.8125 0
0.5625 0.8125 0
0.5625 0.75 0
0.625 0.75 0
0.5625 0.8125 0
0.625 0.8125 0
0.5 0.8125 0
0.5625 0.8125 0
0.5 0.875 0
0.5625 0.875 0
0.5625 0.8125 0
0.625 0.8125 0
0.5625 0.875 0
0.625 0.875 0
0.625 0.75 0
0.6875 0.75 0
0.625 0.8125 0
0.6875 0.8125 0
0.6875 0.75 0
0.75 0.75 0
0.6875 0.8125 0
0.75 0.8125 0
0.625 0.8125 0
0.6875 0.8125 0
0.625 0.875 0
0.6875 0.875 0
0.6875 0.8125 0
0.75 0.8125 0
0.6875 0.875 0
0.75 0.875 0
0.5 0.875 0
0.5625 0.875 0
0.5 0.9375 0
0.5625 0.9375 0
0.5625 0.875 0
0.625 0.875 0
0.5625 0.9375 0
0.625 0.9375 0
0.5 0.9375 0
0.5625 0.9375 0
0.5 1 0
0.5625 1 0
0.625 0.875 0
0.6875 0.875 0
0.625 0.9375 0
0.6875 0.9375 0
0.625 0.9375 0
0.6875 0.9375 0
0.625 1 0
0.6875 1 0
0.3125 0.625 0
0.375 0.625 0
0.3125 0.6875 0
0.375 0.6875 0
0.3125 0.6875 0
0.375 0.6875 0
0.3125 0.75 0
0.375 0.75 0
0.625 0.625 0
0.6875 0.625 0
0.625 0.6875 0
0.6875 0.6875 0
0.625 0.6875 0
0.6875 0.6875 0
0.625 0.75 0
0.6875 0.75 0
0 0.125 0
0.03125 0.125 0
0 0.15625 0
0.03125 0.15625 0
0.03125 0.125 0
0.0625 0.125 0
0.03125 0.15625 0
0.0625 0.15625 0
0 0.15625 0
0.03125 0.15625 0
0 0.1875 0
0.03125 0.1875 0
0.03125 0.15625 0
0.0625 0.15625 0
0.03125 0.1875 0
0.0625 0.1875 0
0.125 0 0
0.15625 0 0
0.125 0.03125 0
0.15625 0.03125 0
0.15625 0 0
0.1875 0 0
0.15625 0.03125 0
0.1875 0.03125 0
0.15625 0.03125 0
0.1875 0.03125 0
0.15625 0.0625 0
0.1875 0.0625 0
0.125 0.09375 0
0.15625 0.09375 0
0.125 0.125 0
0.15625 0.125 0
0.0625 0.15625 0
0.09375 0.15625 0
0.0625 0.1875 0
0.09375 0.1875 0
0.3125 0 0
0.34375 0 0
0.3125 0.03125 0
0.34375 0.03125 0
0.34375 0 0
0.375 0 0
0.34375 0.03125 0
0.375 0.03125 0
0.3125 0.03125 0
0.34375 0.03125 0
0.3125 0.0625 0
0.34375 0.0625 0
0.34375 0.03125 0
0.375 0.03125 0
0.34375 0.0625 0
0.375 0.0625 0
0.125 0.125 0
0.15625 0.125 0
0.125 0.15625 0
0.15625 0.15625 0
0.125 0.15625 0
0.15625 0.15625 0
0.125 0.1875 0
0.15625 0.1875 0
0.0625 0.1875 0
0.09375 0.1875 0
0.0625 0.21875 0
0.09375 0.21875 0
0.0625 0.21875 0
0.09375 0.21875 0
0.0625 0.25 0
0.09375 0.25 0
0.125 0.1875 0
0.15625 0.1875 0
0.125 0.21875 0
0.15625 0.21875 0
0.28125 0 0
0.3125 0 0
0.28125 0.03125 0
0.3125 0.03125 0
0.28125 0.03125 0
0.3125 0.03125 0
0.28125 0.0625 0
0.3125 0.0625 0
0.28125 0.0625 0
0.3125 0.0625 0
0.28125 0.09375 0
0.3125 0.09375 0
0.28125 0.09375 0
0.3125 0.09375 0
0.28125 0.125 0
0.3125 0.125 0
0.46875 0 0
0.5 0 0
0.46875 0.03125 0
0.5 0.03125 0
0.375 0.25 0
0.40625 0.25 0
0.375 0.28125 0
0.40625 0.28125 0
0.375 0.28125 0
0.40625 0.28125 0
0.375 0.3125 0
0.40625 0.3125 0
0.375 0.3125 0
0.40625 0.3125 0
0.375 0.34375 0
0.40625 0.34375 0
0.375 0.34375 0
0.40625 0.34375 0
0.375 0.375 0
0.40625 0.375 0
0 0 0
0.03125 0 0
0 0.03125 0
0.03125 0.03125 0
0.03125 0 0
0.0625 0 0
0.03125 0.03125 0
0.0625 0.03125 0
0 0.03125 0
0.03125 0.03125 0
0 0.0625 0
0.03125 0.0625 0
0.03125 0.03125 0
0.0625 0.03125 0
0.03125 0.0625 0
0.0625 0.0625 0
0 0.0625 0
0.03125 0.0625 0
0 0.09375 0
0.03125 0.09375 0
0.03125 0.0625 0
0.0625 0.0625 0
0.03125 0.09375 0
0.0625 0.09375 0
0 0.09375 0
0.03125 0.09375 0
0 0.125 0
0.03125 0.125 0
0.03125 0.09375 0
0.0625 0.09375 0
0.03125 0.125 0
0.0625 0.125 0
0.6875 0 0
0.71875 0 0
0.6875 0.03125 0
0.71875 0.03125 0
0.6875 0.03125 0
0.71875 0.03125 0
0.6875 0.0625 0
0.71875 0.0625 0
0.6875 0.0625 0
0.71875 0.0625 0
0.6875 0.09375 0
0.71875 0.09375 0
0.6875 0.09375 0
0.71875 0.09375 0
0.6875 0.125 0
0.71875 0.125 0
0.90625 0.15625 0
0.9375 0.15625 0
0.90625 0.1875 0
0.9375 0.1875 0
0.9375 0.125 0
0.96875 0.125 0
0.9375 0.15625 0
0.96875 0.15625 0
0.96875 0.125 0
1 0.125 0
0.96875 0.15625 0
1 0.15625 0
0.9375 0.15625 0
0.96875 0.15625 0
0.9375 0.1875 0
0.96875 0.1875 0
0.96875 0.15625 0
1 0.15625 0
0.96875 0.1875 0
1 0.1875 0
0.90625 0.1875 0
0.9375 0.1875 0
0.90625 0.21875 0
0.9375 0.21875 0
0.90625 0.21875 0
0.9375 0.21875 0
0.90625 0.25 0
0.9375 0.25 0
0.3125 0.0625 0
0.34375 0.0625 0
0.3125 0.09375 0
0.34375 0.09375 0
0.34375 0.0625 0
0.375 0.0625 0
0.34375 0.09375 0
0.375 0.09375 0
0.3125 0.09375 0
0.34375 0.09375 0
0.3125 0.125 0
0.34375 0.125 0
0.34375 0.09375 0
0.375 0.09375 0
0.34375 0.125 0
0.375 0.125 0
0.5 0 0
0.53125 0 0
0.5 0.03125 0
0.53125 0.03125 0
0.59375 0.25 0
0.625 0.25 0
0.59375 0.28125 0
0.625 0.28125 0
0.59375 0.28125 0
0.625 0.28125 0
0.59375 0.3125 0
0.625 0.3125 0
0.59375 0.3125 0
0.625 0.3125 0
0.59375 0.34375 0
0.625 0.34375 0
0.59375 0.34375 0
0.625 0.34375 0
0.59375 0.375 0
0.625 0.375 0
0.4375 0.3125 0
0.46875 0.3125 0
0.4375 0.34375 0
0.46875 0.34375 0
0.46875 0.3125 0
0.5 0.3125 0
0.46875 0.34375 0
0.5 0.34375 0
0.4375 0.34375 0
0.46875 0.34375 0
0.4375 0.375 0
0.46875 0.375 0
0.46875 0.34375 0
0.5 0.34375 0
0.46875 0.375 0
0.5 0.375 0
0.0625 0.25 0
0.09375 0.25 0
0.0625 0.28125 0
0.09375 0.28125 0
0.0625 0.28125 0
0.09375 0.28125 0
0.0625 0.3125 0
0.09375 0.3125 0
0.8125 0 0
0.84375 0 0
0.8125 0.03125 0
0.84375 0.03125 0
0.84375 0 0
0.875 0 0
0.84375 0.03125 0
0.875 0.03125 0
0.8125 0.03125 0
0.84375 0.03125 0
0.8125 0.0625 0
0.84375 0.0625 0
0.28125 0.125 0
0.3125 0.125 0
0.28125 0.15625 0
0.3125 0.15625 0
0.28125 0.15625 0
0.3125 0.15625 0
0.28125 0.1875 0
0.3125 0.1875 0
0.84375 0.09375 0
0.875 0.09375 0
0.84375 0.125 0
0.875 0.125 0
0.28125 0.1875 0
0.3125 0.1875 0
0.28125 0.21875 0
0.3125 0.21875 0
0.28125 0.21875 0
0.3125 0.21875 0
0.28125 0.25 0
0.3125 0.25 0
0.84375 0.125 0
0.875 0.125 0
0.84375 0.15625 0
0.875 0.15625 0
0.84375 0.15625 0
0.875 0.15625 0
0.84375 0.1875 0
0.875 0.1875 0
0.1875 0.0625 0
0.21875 0.0625 0
0.1875 0.09375 0
0.21875 0.09375 0
0.21875 0.0625 0
0.25 0.0625 0
0.21875 0.09375 0
0.25 0.09375 0
0.1875 0.09375 0
0.21875 0.09375 0
0.1875 0.125 0
0.21875 0.125 0
0.21875 0.09375 0
0.25 0.09375 0
0.21875 0.125 0
0.25 0.125 0
0.84375 0.1875 0
0.875 0.1875 0
0.84375 0.21875 0
0.875 0.21875 0
0.375 0.1875 0
0.40625 0.1875 0
0.375 0.21875 0
0.40625 0.21875 0
0.375 0.21875 0
0.40625 0.21875 0
0.375 0.25 0
0.40625 0.25 0
0.90625 0.25 0
0.9375 0.25 0
0.90625 0.28125 0
0.9375 0.28125 0
0.90625 0.28125 0
0.9375 0.28125 0
0.90625 0.3125 0
0.9375 0.3125 0
0.625 0 0
0.65625 0 0
0.625 0.03125 0
0.65625 0.03125 0
0.65625 0 0
0.6875 0 0
0.65625 0.03125 0
0.6875 0.03125 0
0.625 0.03125 0
0.65625 0.03125 0
0.625 0.0625 0
0.65625 0.0625 0
0.65625 0.03125 0
0.6875 0.03125 0
0.65625 0.0625 0
0.6875 0.0625 0
0.28125 0.25 0
0.3125 0.25 0
0.28125 0.28125 0
0.3125 0.28125 0
0.25 0.28125 0
0.28125 0.28125 0
0.25 0.3125 0
0.28125 0.3125 0
[...]
POINT_DATA 5260
SCALARS U double 1
LOOKUP_TABLE default
0 0.39975 0 0.372542 0.399756 2.66916e-16 0.372548 2.50745e-16 0 0.372542 0 0.34942 0.133787 -0.281404 0.123415 -0.265598 0.372548 2.50745e-16 0.349428 2.35553e-16 0.123415 -0.265598 0.113813 -0.25137 0.113813 -0.25137 0.104179 -0.237703 -0.251306 0.113731 -0.237567 0.104253 0.104179 -0.237703 0.0983519 -0.22476 0.384583 0.0983519 0.359352 0.0905409 0.0983519 -0.22476 0.0905409 -0.211865 0.0905409 -0.211865 0.0841282 -0.198748 0.339898 0.0841282 0.316957 0.0794521 0.0841282 -0.198748 0.0794521 -0.189405 -0.189405 -0.396646 -0.177363 -0.370054 -0.177363 -0.370054 -0.166094 -0.35025 0 0.224746 0 0.210614 0.224746 0.371727 0.210614 0.348678 0 0.210614 0 0.19986 0.210614 0.348678 0.19986 0.330058 -0.237567 0.104253 -0.224693 0.0983976 -0.224693 0.0983976 -0.211847 0.0905391 0.0983976 0.38461 0.0905391 0.359325 0 0.327125 0 0.305703 -0.211847 0.0905391 -0.198765 0.0840805 -0.198765 0.0840805 -0.189449 0.0793674 0.0840805 0.339759 0.0793674 0.316772 -0.396666 -0.189449 -0.370083 -0.177426 -0.370083 -0.177426 -0.350281 -0.166154 0.371847 0.224882 0.348702 0.210643 0.224882 1.52084e-16 0.210643 1.4287e-16 0.348702 0.210643 0.330045 0.199866 0.210643 1.4287e-16 0.199866 1.34214e-16 0.327144 2.21281e-16 0.305781 2.07875e-16 0 0.289749 0 0.270893 0.289749 0.479256 0.270893 0.448531 0.270893 0.448531 0.253673 0.421877 0.475964 0.339898 0.444134 0.316957 0.444134 0.316957 0.415995 0.294999 0.415995 0.294999 0.392816 0.280249 0.280249 0.0701383 0.261357 0.0665689 0.0701383 -0.166094 0.0665689 -0.155038 0.261357 0.0665689 0.248631 0.0641941 0.0665689 -0.155038 0.0641941 -0.144115 -0.166094 -0.35025 -0.155038 -0.327672 -0.35025 -0.421799 -0.327672 -0.392496 -0.155038 -0.327672 -0.144115 -0.306248 -0.327672 -0.392496 -0.306248 -0.3673 0.248631 0.0641941 0.237294 0.0632001 0.0641941 -0.144115 0.0632001 -0.133527 0.237294 0.0632001 0.227963 0.0628947 0.0632001 -0.133527 0.0628947 -0.123372 -0.144115 -0.306248 -0.133527 -0.286489 -0.306248 -0.3673 -0.286489 -0.344066 -0.133527 -0.286489 -0.123372 -0.268056 -0.286489 -0.344066 -0.268056 -0.322388 0.339759 0.475619 0.316772 0.443473 0.479494 0.290096 0.449801 0.272196 0.290096 1.9528e-16 0.272196 1.83449e-16 0.316772 0.443473 0.294831 0.415869 0.294831 0.415869 0.280168 0.392817 -0.421799 -0.350281 -0.392496 -0.327741 -0.350281 -0.166154 -0.327741 -0.155102 -0.392496 -0.327741 -0.3673 -0.306509 -0.327741 -0.155102 -0.306509 -0.144468 -0.166154 0.0700496 -0.155102 0.0665862 0.0700496 0.280168 0.0665862 0.261368 -0.155102 0.0665862 -0.144468 0.064416 0.0665862 0.261368 0.064416 0.249417 -0.3673 -0.306509 -0.344066 -0.287464 -0.306509 -0.144468 -0.287464 -0.134601 -0.344066 -0.287464 -0.322388 -0.268056 -0.144468 0.064416 -0.134601 0.0621889 -0.134601 0.0621889 -0.123372 0.0628947 0.0794521 -0.189405 0.0720005 -0.177363 0.0720005 -0.177363 0.0701383 -0.166094 -0.189449 0.0793674 -0.177426 0.0718966 -0.177426 0.0718966 -0.166154 0.0700496 0 0.222123 0 0.214127 0.222123 0.424866 0.214127 0.411201 0 0.214127 0 0.199875 0.214127 0.411201 0.199875 0.39975 0.809633 0.872121 0.783767 0.843701 0.872121 0.859502 0.843701 0.829967 0.843701 0.829967 0.814629 0.804011 0.732321 0.788172 0.70752 0.761662 0.411201 0.573641 0.39975 0.554416 0.170966 -0.0858964 0.164491 -0.0838987 -0.0858964 -0.335361 -0.0838987 -0.32512 0.164491 -0.0838987 0.15819 -0.0820569 -0.0838987 -0.32512 -0.0820569 -0.315359 0.70752 0.761662 0.684336 0.736453 0.684336 0.736453 0.662002 0.712219 0.39975 0.554416 0.386146 0.536094 0.386146 0.536094 0.372542 0.518055 0.662002 0.712219 0.640695 0.689215 0.413104 0.170966 0.398576 0.164491 0.398576 0.164491 0.384741 0.15819 0.384741 0.15819 0.371274 0.15204 0.371274 0.15204 0.358085 0.146032 -0.838606 -0.876341 -0.811653 -0.848934 -0.265598 -0.43488 -0.258484 -0.422131 -0.258484 -0.422131 -0.25137 -0.410206 -0.25137 -0.410206 -0.244537 -0.39852 -0.244537 -0.39852 -0.237703 -0.386503 0 0.254388 0 0.24596 0.254388 0.486869 0.24596 0.470701 0 0.24596 0 0.237789 0.24596 0.470701 0.237789 0.455049 0 0.237789 0 0.229833 0.237789 0.455049 0.229833 0.439908 0 0.229833 0 0.222123 0.229833 0.439908 0.222123 0.424866 0.170966 0.413104 0.164527 0.398604 0.164527 0.398604 0.158257 0.384793 0.158257 0.384793 0.152125 0.371346 0.152125 0.371346 0.146111 0.358165 0.573651 0.411207 0.554427 0.399756 0.424871 0.222125 0.411207 0.21413 0.222125 2.84131e-16 0.21413 2.75389e-16 0.411207 0.21413 0.399756 0.199878 0.21413 2.75389e-16 0.199878 2.66916e-16 0.554427 0.399756 0.536105 0.386152 0.536105 0.386152 0.518065 0.372548 0.15819 -0.0820569 0.15204 -0.0803913 -0.0820569 -0.315359 -0.0803913 -0.306096 0.15204 -0.0803913 0.146032 -0.0788459 -0.0803913 -0.306096 -0.0788459 -0.297286 -0.876341 -0.838606 -0.848934 -0.81163 -0.434806 -0.265052 -0.421203 -0.257561 -0.421203 -0.257561 -0.409766 -0.251306 -0.409766 -0.251306 -0.398306 -0.244437 -0.398306 -0.244437 -0.386358 -0.237567 -0.535062 -0.61469 -0.519275 -0.596309 -0.61469 -0.641743 -0.596309 -0.622743 -0.519275 -0.596309 -0.503949 -0.579021 -0.596309 -0.622743 -0.579021 -0.604558 0.372542 0.518055 0.360981 0.500658 0.360981 0.500658 0.34942 0.485439 0.859502 0.872121 0.829977 0.843708 0.872121 0.809633 0.843708 0.783772 0.829977 0.843708 0.804032 0.814643 0.358085 0.146032 0.345249 0.140325 0.345249 0.140325 0.332935 0.133787 0.788193 0.732334 0.761689 0.707536 0.332935 0.133787 0.321056 0.128601 0.321056 0.128601 0.309382 0.123415 0.761689 0.707536 0.736483 0.684354 0.736483 0.684354 0.712253 0.662021 0.804011 0.723333 0.775287 0.697476 0.723333 0.578884 0.697476 0.558526 0.775287 0.697476 0.749886 0.673465 0.697476 0.558526 0.673465 0.53908 0.712253 0.662021 0.689249 0.640714 -0.281404 -0.462338 -0.273501 -0.447759 -0.273501 -0.447759 -0.265598 -0.43488 0.518065 0.372548 0.500669 0.360988 0.500669 0.360988 0.485451 0.349428 -0.335361 -0.0858964 -0.32507 -0.0838548 -0.0858964 0.170966 -0.0838548 0.164527 -0.32507 -0.0838548 -0.315258 -0.0819722 -0.0838548 0.164527 -0.0819722 0.158257 0.309382 0.123415 0.299366 0.118614 0.452818 0.299366 0.438818 0.289033 0.299366 0.118614 0.289033 0.113813 0.289033 0.113813 0.277958 0.108996 0.277958 0.108996 0.269115 0.104179 0.146111 0.358165 0.140252 0.345453 0.140252 0.345453 0.134598 0.333237 0.134598 0.333237 0.129144 0.321465 0.129144 0.321465 0.124038 0.309768 0.486869 0.254388 0.470703 0.245961 0.254388 3.21962e-16 0.245961 3.12057e-16 0.470703 0.245961 0.455052 0.237791 0.245961 3.12057e-16 0.237791 3.02456e-16 0.455052 0.237791 0.439913 0.229835 0.237791 3.02456e-16 0.229835 2.9315e-16 0.439913 0.229835 0.424871 0.222125 0.229835 2.9315e-16 0.222125 2.84131e-16 0.124038 0.309768 0.119283 0.29964 0.119283 0.29964 0.113731 0.289186 0.29964 0.452985 0.289186 0.438926 0.113731 0.289186 0.108992 0.278004 0.108992 0.278004 0.104253 0.269161 0.409553 0.269115 0.394767 0.258986 0.269115 0.104179 0.258986 0.101266 0.394767 0.258986 0.384583 0.241467 0.258986 0.101266 0.241467 0.0983519 -0.315258 -0.0819722 -0.305946 -0.0802769 -0.0819722 0.158257 -0.0802769 0.152125 -0.305946 -0.0802769 -0.297093 -0.0787507 -0.0802769 0.152125 -0.0787507 0.146111 -0.641743 -0.614499 -0.622743 -0.596179 -0.614499 -0.534685 -0.596179 -0.519052 -0.622743 -0.596179 -0.604558 -0.57894 -0.596179 -0.519052 -0.57894 -0.503813 -0.211865 -0.343774 -0.205307 -0.33225 -0.205307 -0.33225 -0.198748 -0.323037 -0.198748 -0.323037 -0.194077 -0.312311 -0.323037 -0.419802 -0.312311 -0.405892 -0.194077 -0.312311 -0.189405 -0.293026 -0.312311 -0.405892 -0.293026 -0.396646 -0.419802 -0.481127 -0.405892 -0.466778 -0.405892 -0.466778 -0.396646 -0.452889 -0.466778 -0.488029 -0.452889 -0.472599 -0.237703 -0.386503 -0.231232 -0.375997 -0.231232 -0.375997 -0.22476 -0.364858 -0.375997 -0.48834 -0.364858 -0.474582 -0.22476 -0.364858 -0.218313 -0.354201 -0.364858 -0.474582 -0.354201 -0.460388 -0.218313 -0.354201 -0.211865 -0.343774 -0.354201 -0.460388 -0.343774 -0.446753 -0.474582 -0.544206 -0.460388 -0.527222 -0.460388 -0.527222 -0.446753 -0.51237 0.749886 0.673465 0.724876 0.650733 0.673465 0.53908 0.650733 0.520486 0.724876 0.650733 0.700797 0.628865 0.650733 0.520486 0.628865 0.50267 -0.396646 -0.452889 -0.38335 -0.438615 -0.452889 -0.472599 -0.438615 -0.458324 -0.38335 -0.438615 -0.370054 -0.424418 0.700797 0.628865 0.677466 0.607909 0.628865 0.50267 0.607909 0.485586 0.677466 0.607909 0.655046 0.58831 0.607909 0.485586 0.58831 0.469202 -0.335361 -0.555945 -0.32512 -0.538377 -0.555945 -0.728651 -0.538377 -0.704566 -0.32512 -0.538377 -0.315359 -0.521628 -0.538377 -0.704566 -0.521628 -0.68365 -0.315359 -0.521628 -0.306096 -0.505737 -0.521628 -0.68365 -0.505737 -0.662165 -0.306096 -0.505737 -0.297286 -0.49043 -0.505737 -0.662165 -0.49043 -0.641642 -0.386358 -0.237567 -0.375893 -0.23113 -0.488252 -0.375893 -0.474526 -0.364789 -0.375893 -0.23113 -0.364789 -0.224693 -0.544174 -0.474526 -0.527203 -0.460354 -0.527203 -0.460354 -0.51236 -0.446735 -0.474526 -0.364789 -0.460354 -0.35416 -0.364789 -0.224693 -0.35416 -0.21827 -0.460354 -0.35416 -0.446735 -0.343753 -0.35416 -0.21827 -0.343753 -0.211847 0.104253 0.269161 0.101325 0.259032 0.269161 0.409596 0.259032 0.394803 0.101325 0.259032 0.0983976 0.241504 0.259032 0.394803 0.241504 0.38461 -0.68365 -0.78728 -0.662165 -0.76176 -0.78728 -0.822079 -0.76176 -0.795967 -0.662165 -0.76176 -0.641642 -0.737857 -0.76176 -0.795967 -0.737857 -0.77082 0 0.17471 0 0.174492 0.17471 0.34942 0.174492 0.335655 0 0.174492 0 0.163562 0.174492 0.335655 0.163562 0.327125 0.327125 0.453933 0.316414 0.439082 0.316414 0.439082 0.305703 0.424137 0.439082 0.524216 0.424137 0.506698 0.305703 0.424137 0.292636 0.409721 0.424137 0.506698 0.409721 0.488922 0.292636 0.409721 0.289749 0.384502 0.409721 0.488922 0.384502 0.479256 -0.343753 -0.211847 -0.332245 -0.205306 -0.332245 -0.205306 -0.323045 -0.198765 -0.481128 -0.419806 -0.466784 -0.405904 -0.488029 -0.466784 -0.472599 -0.452898 -0.466784 -0.405904 -0.452898 -0.396666 -0.419806 -0.323045 -0.405904 -0.312332 -0.323045 -0.198765 -0.312332 -0.194107 -0.405904 -0.312332 -0.396666 -0.293057 -0.312332 -0.194107 -0.293057 -0.189449 0.34942 0.485439 0.335655 0.469675 0.485439 0.580679 0.469675 0.56126 0.335655 0.469675 0.327125 0.453933 0.469675 0.56126 0.453933 0.543282 -0.472599 -0.452898 -0.458324 -0.438627 -0.452898 -0.396666 -0.438627 -0.383374 -0.438627 -0.383374 -0.424432 -0.370083 0.580679 0.62453 0.56126 0.604042 0.62453 0.614175 0.604042 0.593973 0.56126 0.604042 0.543282 0.584621 0.604042 0.593973 0.584621 0.575084 0.614175 0.550565 0.593973 0.532075 0.550565 0.438818 0.532075 0.423137 0.593973 0.532075 0.575084 0.514317 0.532075 0.423137 0.514317 0.409553 0.514317 0.409553 0.49643 0.394767 0.49643 0.394767 0.480537 0.384583 0.480537 0.384583 0.466333 0.371967 0.520299 0.466333 0.502938 0.450396 0.466333 0.371967 0.450396 0.359352 0.409596 0.514355 0.394803 0.496464 0.394803 0.496464 0.38461 0.480567 0.38461 0.480567 0.371967 0.466351 0.371967 0.466351 0.359325 0.450372 0.466351 0.52035 0.450372 0.502981 0.146032 -0.0788459 0.140325 -0.0773521 -0.0788459 -0.297286 -0.0773521 -0.28875 0.140325 -0.0773521 0.133787 -0.0738088 -0.0773521 -0.28875 -0.0738088 -0.281404 -0.297286 -0.49043 -0.28875 -0.475961 -0.49043 -0.641642 -0.475961 -0.622162 -0.28875 -0.475961 -0.281404 -0.462338 -0.475961 -0.622162 -0.462338 -0.603776 0.453961 0.327144 0.439131 0.316462 0.524265 0.439131 0.506782 0.424228 0.439131 0.316462 0.424228 0.305781 -0.641642 -0.737857 -0.622162 -0.71512 -0.737857 -0.77082 -0.71512 -0.746922 -0.622162 -0.71512 -0.603776 -0.693294 -0.71512 -0.746922 -0.693294 -0.724135 0.506782 0.424228 0.489065 0.409891 0.424228 0.305781 0.409891 0.292789 0.489065 0.409891 0.479494 0.384795 0.409891 0.292789 0.384795 0.290096 -0.603776 -0.693294 -0.584696 -0.672455 -0.693294 -0.724135 -0.672455 -0.702376 -0.584696 -0.672455 -0.567851 -0.652661 -0.672455 -0.702376 -0.652661 -0.681554 0.438926 0.550635 0.4232 0.532124 0.550635 0.614217 0.532124 0.594009 0.4232 0.532124 0.409596 0.514355 0.532124 0.594009 0.514355 0.575117 0.479256 0.5128 0.463894 0.498128 0.463894 0.498128 0.448531 0.48253 0.498128 0.486997 0.48253 0.475964 0.502938 0.450396 0.486997 0.435002 0.450396 0.359352 0.435002 0.343178 0.486997 0.435002 0.475964 0.407931 0.435002 0.343178 0.407931 0.339898 0.448531 0.48253 0.435204 0.467586 0.48253 0.475964 0.467586 0.460049 0.435204 0.467586 0.421877 0.452374 0.467586 0.460049 0.452374 0.444134 0.614217 0.624557 0.594009 0.604069 0.624557 0.580697 0.604069 0.561282 0.594009 0.604069 0.575117 0.584652 0.604069 0.561282 0.584652 0.543313 0.452374 0.444134 0.436282 0.430064 0.436282 0.430064 0.422632 0.415995 0.580697 0.485451 0.561282 0.469692 0.485451 0.349428 0.469692 0.335667 0.561282 0.469692 0.543313 0.453961 0.469692 0.335667 0.453961 0.327144 0.422632 0.415995 0.409786 0.404405 0.409786 0.404405 0.398444 0.392816 0.349428 0.174714 0.335667 0.174498 0.174714 2.35553e-16 0.174498 2.28306e-16 0.335667 0.174498 0.327144 0.163572 0.174498 2.28306e-16 0.163572 2.21281e-16 -0.728651 -0.555945 -0.704525 -0.538327 -0.555945 -0.335361 -0.538327 -0.32507 -0.704525 -0.538327 -0.68356 -0.521523 -0.538327 -0.32507 -0.521523 -0.315258 -0.822079 -0.787228 -0.795967 -0.761668 -0.787228 -0.68356 -0.761668 -0.66201 -0.795967 -0.761668 -0.77082 -0.737704 -0.761668 -0.66201 -0.737704 -0.64138 -0.68356 -0.521523 -0.66201 -0.505563 -0.521523 -0.315258 -0.505563 -0.305946 -0.66201 -0.505563 -0.64138 -0.490167 -0.505563 -0.305946 -0.490167 -0.297093 -0.77082 -0.737704 -0.746922 -0.714887 -0.737704 -0.64138 -0.714887 -0.621729 -0.746922 -0.714887 -0.724135 -0.693141 -0.714887 -0.621729 -0.693141 -0.602981 -0.64138 -0.490167 -0.621729 -0.475452 -0.490167 -0.297093 -0.475452 -0.288642 -0.621729 -0.475452 -0.602981 -0.461388 -0.475452 -0.288642 -0.461388 -0.280554 -0.724135 -0.693141 -0.702376 -0.672405 -0.693141 -0.602981 -0.672405 -0.585075 -0.702376 -0.672405 -0.681554 -0.652559 -0.672405 -0.585075 -0.652559 -0.568209 -0.602981 -0.461388 -0.585075 -0.447914 -0.461388 -0.280554 -0.447914 -0.272742 -0.585075 -0.447914 -0.568209 -0.434806 -0.447914 -0.272742 -0.434806 -0.265052 -0.297093 -0.0787507 -0.288642 -0.0773521 -0.0787507 0.146111 -0.0773521 0.140252 -0.288642 -0.0773521 -0.280554 -0.0760309 -0.0773521 0.140252 -0.0760309 0.134598 -0.280554 -0.0760309 -0.272742 -0.0747154 -0.0760309 0.134598 -0.0747154 0.129144 -0.272742 -0.0747154 -0.265052 -0.0733598 -0.0747154 0.129144 -0.0733598 0.124038 0.578924 0.723363 0.558585 0.697521 0.723363 0.804032 0.697521 0.775318 0.558585 0.697521 0.539169 0.67353 0.697521 0.775318 0.67353 0.749928 0.539169 0.67353 0.520624 0.65082 0.67353 0.749928 0.65082 0.724928 0.520624 0.65082 0.50286 0.628974 0.65082 0.724928 0.628974 0.700858 0.50286 0.628974 0.485809 0.608029 0.628974 0.700858 0.608029 0.67753 0.485809 0.608029 0.469415 0.588425 0.608029 0.67753 0.588425 0.655108 0.359325 0.450372 0.343095 0.434893 0.450372 0.502981 0.434893 0.486909 0.343095 0.434893 0.339759 0.407689 0.434893 0.486909 0.407689 0.475619 0.512981 0.479494 0.498328 0.464647 0.486909 0.498328 0.475619 0.482136 0.498328 0.464647 0.482136 0.449801 -0.265052 -0.0733598 -0.257561 -0.0719793 -0.0733598 0.124038 -0.0719793 0.119283 -0.257561 -0.0719793 -0.251306 -0.0687874 -0.0719793 0.119283 -0.0687874 0.113731 0.475619 0.482136 0.459546 0.466756 0.482136 0.449801 0.466756 0.431601 0.459546 0.466756 0.443473 0.4503 0 0.13189 0 0.127266 0.13189 0.253673 0.127266 0.241984 0 0.127266 0 0.122762 0.127266 0.241984 0.122762 0.235074 0.449801 0.360998 0.431601 0.360479 0.360998 0.272196 0.360479 0.257935 0.431601 0.360479 0.417797 0.349482 0.360479 0.257935 0.349482 0.251007 0.253673 0.337775 0.241984 0.337528 0.337775 0.421877 0.337528 0.403406 0.241984 0.337528 0.235074 0.32717 0.337528 0.403406 0.32717 0.391896 0.443473 0.4503 0.429671 0.436245 0.429671 0.436245 0.415869 0.422757 0 0.122762 0 0.119085 0.122762 0.235074 0.119085 0.226931 0 0.119085 0 0.112373 0.119085 0.226931 0.112373 0.224746 0.415869 0.422757 0.404343 0.409879 0.404343 0.409879 0.392817 0.3985 0.235074 0.32717 0.226931 0.317076 0.32717 0.391896 0.317076 0.378856 0.226931 0.317076 0.224746 0.298237 0.317076 0.378856 0.298237 0.371727 0.417797 0.349482 0.404997 0.338687 0.349482 0.251007 0.338687 0.243291 0.404997 0.338687 0.392318 0.327869 0.338687 0.243291 0.327869 0.235548 0.251007 0.131056 0.243291 0.127075 0.131056 1.72334e-16 0.127075 1.67032e-16 0.243291 0.127075 0.235548 0.123003 0.127075 1.67032e-16 0.123003 1.61893e-16 0.392318 0.327869 0.379091 0.317372 0.327869 0.235548 0.317372 0.227193 0.379091 0.317372 0.371847 0.298364 0.317372 0.227193 0.298364 0.224882 0.235548 0.123003 0.227193 0.119226 0.123003 1.61893e-16 0.119226 1.56912e-16 0.227193 0.119226 0.224882 0.112441 0.119226 1.56912e-16 0.112441 1.52084e-16 0.359352 0.224946 0.343178 0.225184 0.224946 0.0905409 0.225184 0.0873346 0.343178 0.225184 0.339898 0.212013 0.225184 0.0873346 0.212013 0.0841282 -0.446753 -0.51237 -0.432188 -0.496752 -0.51237 -0.53582 -0.496752 -0.518633 -0.432188 -0.496752 -0.419802 -0.481127 -0.496752 -0.518633 -0.481127 -0.503318 -0.370054 -0.424418 -0.360152 -0.410724 -0.424418 -0.443483 -0.410724 -0.426872 -0.360152 -0.410724 -0.35025 -0.386024 -0.410724 -0.426872 -0.386024 -0.421799 0 0.152851 0 0.153212 0.152851 0.305703 0.153212 0.292636 0 0.153212 0 0.144874 0.153212 0.292636 0.144874 0.289749 -0.53582 -0.51236 -0.518633 -0.496748 -0.51236 -0.446735 -0.496748 -0.432183 -0.518633 -0.496748 -0.503318 -0.481128 -0.496748 -0.432183 -0.481128 -0.419806 0.0905391 0.224932 0.0873098 0.225134 0.224932 0.359325 0.225134 0.343095 0.0873098 0.225134 0.0840805 0.21192 0.225134 0.343095 0.21192 0.339759 -0.443483 -0.424432 -0.426872 -0.410738 -0.424432 -0.370083 -0.410738 -0.360182 -0.426872 -0.410738 -0.421799 -0.38604 -0.410738 -0.360182 -0.38604 -0.350281 0.305781 0.15289 0.292789 0.153307 0.15289 2.07875e-16 0.153307 2.01479e-16 0.292789 0.153307 0.290096 0.145048 0.153307 2.01479e-16 0.145048 1.9528e-16 0 0.135447 0 0.136131 0.135447 0.270893 0.136131 0.262283 0 0.136131 0 0.13189 0.136131 0.262283 0.13189 0.253673 0.272196 0.136098 0.257935 0.135393 0.136098 1.83449e-16 0.135393 1.77805e-16 0.257935 0.135393 0.251007 0.131056 0.135393 1.77805e-16 0.131056 1.72334e-16 -0.287464 -0.211032 -0.27776 -0.211164 -0.211032 -0.134601 -0.211164 -0.128987 -0.27776 -0.211164 -0.268056 -0.204521 -0.211164 -0.128987 -0.204521 -0.123372 0.064416 0.156916 0.0633024 0.159074 0.156916 0.249417 0.159074 0.241592 0.0633024 0.159074 0.0621889 0.156512 0.159074 0.241592 0.156512 0.236783 0.0621889 0.156512 0.0625418 0.154066 0.156512 0.236783 0.154066 0.232178 0.0625418 0.154066 0.0628947 0.151973 0.154066 0.232178 0.151973 0.227963 0.316957 0.198205 0.305978 0.198637 0.198205 0.0794521 0.198637 0.0757263 0.305978 0.198637 0.294999 0.193 0.198637 0.0757263 0.193 0.0720005 0.294999 0.193 0.287624 0.186754 0.193 0.0720005 0.186754 0.0710694 0.287624 0.186754 0.280249 0.175194 0.186754 0.0710694 0.175194 0.0701383 0.371727 0.398444 0.360203 0.386304 0.398444 0.392816 0.386304 0.377598 0.360203 0.386304 0.348678 0.374593 0.386304 0.377598 0.374593 0.367657 0.392816 0.336533 0.377598 0.337972 0.336533 0.280249 0.337972 0.270803 0.377598 0.337972 0.367657 0.329092 0.337972 0.270803 0.329092 0.261357 0.348678 0.374593 0.339368 0.36398 0.374593 0.367657 0.36398 0.357485 0.339368 0.36398 0.330058 0.353719 0.36398 0.357485 0.353719 0.347803 0.367657 0.329092 0.357485 0.32011 0.329092 0.261357 0.32011 0.254994 0.357485 0.32011 0.347803 0.311795 0.32011 0.254994 0.311795 0.248631 0 0.0999299 0 0.100071 0.0999299 0.19986 0.100071 0.190604 0 0.100071 0 0.0976257 0.100071 0.190604 0.0976257 0.186935 0.19986 0.264959 0.190604 0.266287 0.264959 0.330058 0.266287 0.318399 0.190604 0.266287 0.186935 0.260191 0.266287 0.318399 0.260191 0.311278 0 0.0976257 0 0.0955647 0.0976257 0.186935 0.0955647 0.182921 0 0.0955647 0 0.0935842 0.0955647 0.182921 0.0935842 0.179109 0.186935 0.260191 0.182921 0.254572 0.260191 0.311278 0.254572 0.304321 0.1829