# vtk DataFile Version 3.0
#This file was generated by the deal.II library on 2018/12/4 at 0:47:17
ASCII
DATASET UNSTRUCTURED_GRID

POINTS 54304 double
0 0.125 0
0.03125 0.125 0
0 0.15625 0
0.03125 0.15625 0
0 0.15625 0
0.03125 0.15625 0
0 0.1875 0
0.03125 0.1875 0
0.3125 0 0
0.34375 0 0
0.3125 0.03125 0
0.34375 0.03125 0
0 0 0
0.03125 0 0
0 0.03125 0
0.03125 0.03125 0
0 0.03125 0
0.03125 0.03125 0
0 0.0625 0
0.03125 0.0625 0
0 0.0625 0
0.03125 0.0625 0
0 0.09375 0
0.03125 0.09375 0
0 0.09375 0
0.03125 0.09375 0
0 0.125 0
0.03125 0.125 0
0.96875 0.125 0
1 0.125 0
0.96875 0.15625 0
1 0.15625 0
0.96875 0.15625 0
1 0.15625 0
0.96875 0.1875 0
1 0.1875 0
0.65625 0 0
0.6875 0 0
0.65625 0.03125 0
0.6875 0.03125 0
0.96875 0 0
1 0 0
0.96875 0.03125 0
1 0.03125 0
0.96875 0.03125 0
1 0.03125 0
0.96875 0.0625 0
1 0.0625 0
0.96875 0.0625 0
1 0.0625 0
0.96875 0.09375 0
1 0.09375 0
0.96875 0.09375 0
1 0.09375 0
0.96875 0.125 0
1 0.125 0
0 0.65625 0
0.03125 0.65625 0
0 0.6875 0
0.03125 0.6875 0
0.96875 0.65625 0
1 0.65625 0
0.96875 0.6875 0
1 0.6875 0
0 0.5625 0
0.03125 0.5625 0
0 0.59375 0
0.03125 0.59375 0
0 0.59375 0
0.03125 0.59375 0
0 0.625 0
0.03125 0.625 0
0 0.25 0
0.03125 0.25 0
0 0.28125 0
0.03125 0.28125 0
0.96875 0.25 0
1 0.25 0
0.96875 0.28125 0
1 0.28125 0
0.3125 0.375 0
0.34375 0.375 0
0.3125 0.40625 0
0.34375 0.40625 0
0.3125 0.40625 0
0.34375 0.40625 0
0.3125 0.4375 0
0.34375 0.4375 0
0.34375 0.40625 0
0.375 0.40625 0
0.34375 0.4375 0
0.375 0.4375 0
0.3125 0.4375 0
0.34375 0.4375 0
0.3125 0.46875 0
0.34375 0.46875 0
0.34375 0.4375 0
0.375 0.4375 0
0.34375 0.46875 0
0.375 0.46875 0
0.3125 0.46875 0
0.34375 0.46875 0
0.3125 0.5 0
0.34375 0.5 0
0 0.75 0
0.03125 0.75 0
0 0.78125 0
0.03125 0.78125 0
0 0.78125 0
0.03125 0.78125 0
0 0.8125 0
0.03125 0.8125 0
0 0.8125 0
0.03125 0.8125 0
0 0.84375 0
0.03125 0.84375 0
0 0.84375 0
0.03125 0.84375 0
0 0.875 0
0.03125 0.875 0
0.65625 0.375 0
0.6875 0.375 0
0.65625 0.40625 0
0.6875 0.40625 0
0.625 0.40625 0
0.65625 0.40625 0
0.625 0.4375 0
0.65625 0.4375 0
0.65625 0.40625 0
0.6875 0.40625 0
0.65625 0.4375 0
0.6875 0.4375 0
0.625 0.4375 0
0.65625 0.4375 0
0.625 0.46875 0
0.65625 0.46875 0
0.65625 0.4375 0
0.6875 0.4375 0
0.65625 0.46875 0
0.6875 0.46875 0
0.65625 0.46875 0
0.6875 0.46875 0
0.65625 0.5 0
0.6875 0.5 0
0.96875 0.75 0
1 0.75 0
0.96875 0.78125 0
1 0.78125 0
0.96875 0.78125 0
1 0.78125 0
0.96875 0.8125 0
1 0.8125 0
0.96875 0.8125 0
1 0.8125 0
0.96875 0.84375 0
1 0.84375 0
0.96875 0.84375 0
1 0.84375 0
0.96875 0.875 0
1 0.875 0
0.3125 0.75 0
0.34375 0.75 0
0.3125 0.78125 0
0.34375 0.78125 0
0.3125 0.78125 0
0.34375 0.78125 0
0.3125 0.8125 0
0.34375 0.8125 0
0.3125 0.8125 0
0.34375 0.8125 0
0.3125 0.84375 0
0.34375 0.84375 0
0.3125 0.84375 0
0.34375 0.84375 0
0.3125 0.875 0
0.34375 0.875 0
0.3125 0.875 0
0.34375 0.875 0
0.3125 0.90625 0
0.34375 0.90625 0
0.3125 0.90625 0
0.34375 0.90625 0
0.3125 0.9375 0
0.34375 0.9375 0
0.34375 0.9375 0
0.375 0.9375 0
0.34375 0.96875 0
0.375 0.96875 0
0.34375 0.96875 0
0.375 0.96875 0
0.34375 1 0
0.375 1 0
0.65625 0.75 0
0.6875 0.75 0
0.65625 0.78125 0
0.6875 0.78125 0
0.65625 0.78125 0
0.6875 0.78125 0
0.65625 0.8125 0
0.6875 0.8125 0
0.65625 0.8125 0
0.6875 0.8125 0
0.65625 0.84375 0
0.6875 0.84375 0
0.65625 0.84375 0
0.6875 0.84375 0
0.65625 0.875 0
0.6875 0.875 0
0.65625 0.875 0
0.6875 0.875 0
0.65625 0.90625 0
0.6875 0.90625 0
0.65625 0.90625 0
0.6875 0.90625 0
0.65625 0.9375 0
0.6875 0.9375 0
0 0.6875 0
0.03125 0.6875 0
0 0.71875 0
0.03125 0.71875 0
0 0.71875 0
0.03125 0.71875 0
0 0.75 0
0.03125 0.75 0
0.96875 0.6875 0
1 0.6875 0
0.96875 0.71875 0
1 0.71875 0
0.96875 0.71875 0
1 0.71875 0
0.96875 0.75 0
1 0.75 0
0.625 0.9375 0
0.65625 0.9375 0
0.625 0.96875 0
0.65625 0.96875 0
0.625 0.96875 0
0.65625 0.96875 0
0.625 1 0
0.65625 1 0
0 0.96875 0
0.03125 0.96875 0
0 1 0
0.03125 1 0
0.96875 0.96875 0
1 0.96875 0
0.96875 1 0
1 1 0
0.03125 0.125 0
0.046875 0.125 0
0.03125 0.140625 0
0.046875 0.140625 0
0.046875 0.125 0
0.0625 0.125 0
0.046875 0.140625 0
0.0625 0.140625 0
0.03125 0.140625 0
0.046875 0.140625 0
0.03125 0.15625 0
0.046875 0.15625 0
0.046875 0.140625 0
0.0625 0.140625 0
0.046875 0.15625 0
0.0625 0.15625 0
0.0625 0.1875 0
0.078125 0.1875 0
0.0625 0.203125 0
0.078125 0.203125 0
0.0625 0.203125 0
0.078125 0.203125 0
0.0625 0.21875 0
0.078125 0.21875 0
0.0625 0.21875 0
0.078125 0.21875 0
0.0625 0.234375 0
0.078125 0.234375 0
0.0625 0.234375 0
0.078125 0.234375 0
0.0625 0.25 0
0.078125 0.25 0
0.921875 0.1875 0
0.9375 0.1875 0
0.921875 0.203125 0
0.9375 0.203125 0
0.921875 0.203125 0
0.9375 0.203125 0
0.921875 0.21875 0
0.9375 0.21875 0
0.921875 0.21875 0
0.9375 0.21875 0
0.921875 0.234375 0
0.9375 0.234375 0
0.921875 0.234375 0
0.9375 0.234375 0
0.921875 0.25 0
0.9375 0.25 0
0.0625 0.25 0
0.078125 0.25 0
0.0625 0.265625 0
0.078125 0.265625 0
0.0625 0.265625 0
0.078125 0.265625 0
0.0625 0.28125 0
0.078125 0.28125 0
0.921875 0.25 0
0.9375 0.25 0
0.921875 0.265625 0
0.9375 0.265625 0
0.921875 0.265625 0
0.9375 0.265625 0
0.921875 0.28125 0
0.9375 0.28125 0
0.96875 0.59375 0
0.984375 0.59375 0
0.96875 0.609375 0
0.984375 0.609375 0
0.984375 0.59375 0
1 0.59375 0
0.984375 0.609375 0
1 0.609375 0
0.96875 0.609375 0
0.984375 0.609375 0
0.96875 0.625 0
0.984375 0.625 0
0.984375 0.609375 0
1 0.609375 0
0.984375 0.625 0
1 0.625 0
0.28125 0 0
0.296875 0 0
0.28125 0.015625 0
0.296875 0.015625 0
0.296875 0 0
0.3125 0 0
0.296875 0.015625 0
0.3125 0.015625 0
0.28125 0.015625 0
0.296875 0.015625 0
0.28125 0.03125 0
0.296875 0.03125 0
0.296875 0.015625 0
0.3125 0.015625 0
0.296875 0.03125 0
0.3125 0.03125 0
0.265625 0.046875 0
0.28125 0.046875 0
0.265625 0.0625 0
0.28125 0.0625 0
0.28125 0.03125 0
0.296875 0.03125 0
0.28125 0.046875 0
0.296875 0.046875 0
0.296875 0.03125 0
0.3125 0.03125 0
0.296875 0.046875 0
0.3125 0.046875 0
0.28125 0.046875 0
0.296875 0.046875 0
0.28125 0.0625 0
0.296875 0.0625 0
0.265625 0.0625 0
0.28125 0.0625 0
0.265625 0.078125 0
0.28125 0.078125 0
0.265625 0.078125 0
0.28125 0.078125 0
0.265625 0.09375 0
0.28125 0.09375 0
0.59375 0.96875 0
0.609375 0.96875 0
0.59375 0.984375 0
0.609375 0.984375 0
0.609375 0.96875 0
0.625 0.96875 0
0.609375 0.984375 0
0.625 0.984375 0
0.59375 0.984375 0
0.609375 0.984375 0
0.59375 1 0
0.609375 1 0
0.609375 0.984375 0
0.625 0.984375 0
0.609375 1 0
0.625 1 0
0.25 0.09375 0
0.265625 0.09375 0
0.25 0.109375 0
0.265625 0.109375 0
0.265625 0.09375 0
0.28125 0.09375 0
0.265625 0.109375 0
0.28125 0.109375 0
0.25 0.109375 0
0.265625 0.109375 0
0.25 0.125 0
0.265625 0.125 0
0.265625 0.109375 0
0.28125 0.109375 0
0.265625 0.125 0
0.28125 0.125 0
0.03125 0.15625 0
0.046875 0.15625 0
0.03125 0.171875 0
0.046875 0.171875 0
0.046875 0.15625 0
0.0625 0.15625 0
0.046875 0.171875 0
0.0625 0.171875 0
0.03125 0.171875 0
0.046875 0.171875 0
0.03125 0.1875 0
0.046875 0.1875 0
0.046875 0.171875 0
0.0625 0.171875 0
0.046875 0.1875 0
0.0625 0.1875 0
0.375 0.3125 0
0.390625 0.3125 0
0.375 0.328125 0
0.390625 0.328125 0
0.390625 0.3125 0
0.40625 0.3125 0
0.390625 0.328125 0
0.40625 0.328125 0
0.375 0.328125 0
0.390625 0.328125 0
0.375 0.34375 0
0.390625 0.34375 0
0.390625 0.328125 0
0.40625 0.328125 0
0.390625 0.34375 0
0.40625 0.34375 0
0.40625 0.328125 0
0.421875 0.328125 0
0.40625 0.34375 0
0.421875 0.34375 0
0.421875 0.328125 0
0.4375 0.328125 0
0.421875 0.34375 0
0.4375 0.34375 0
0.34375 0.03125 0
0.359375 0.03125 0
0.34375 0.046875 0
0.359375 0.046875 0
0.359375 0.03125 0
0.375 0.03125 0
0.359375 0.046875 0
0.375 0.046875 0
0.34375 0.046875 0
0.359375 0.046875 0
0.34375 0.0625 0
0.359375 0.0625 0
0.359375 0.046875 0
0.375 0.046875 0
0.359375 0.0625 0
0.375 0.0625 0
0.40625 0.34375 0
0.421875 0.34375 0
0.40625 0.359375 0
0.421875 0.359375 0
0.421875 0.34375 0
0.4375 0.34375 0
0.421875 0.359375 0
0.4375 0.359375 0
0.40625 0.359375 0
0.421875 0.359375 0
0.40625 0.375 0
0.421875 0.375 0
0.421875 0.359375 0
0.4375 0.359375 0
0.421875 0.375 0
0.4375 0.375 0
0.375 0.25 0
0.390625 0.25 0
0.375 0.265625 0
0.390625 0.265625 0
0.390625 0.25 0
0.40625 0.25 0
0.390625 0.265625 0
0.40625 0.265625 0
0.375 0.265625 0
0.390625 0.265625 0
0.375 0.28125 0
0.390625 0.28125 0
0.390625 0.265625 0
0.40625 0.265625 0
0.390625 0.28125 0
0.40625 0.28125 0
0.03125 0.0625 0
0.046875 0.0625 0
0.03125 0.078125 0
0.046875 0.078125 0
0.046875 0.0625 0
0.0625 0.0625 0
0.046875 0.078125 0
0.0625 0.078125 0
0.03125 0.078125 0
0.046875 0.078125 0
0.03125 0.09375 0
0.046875 0.09375 0
0.046875 0.078125 0
0.0625 0.078125 0
0.046875 0.09375 0
0.0625 0.09375 0
0.03125 0.09375 0
0.046875 0.09375 0
0.03125 0.109375 0
0.046875 0.109375 0
0.046875 0.09375 0
0.0625 0.09375 0
0.046875 0.109375 0
0.0625 0.109375 0
0.03125 0.109375 0
0.046875 0.109375 0
0.03125 0.125 0
0.046875 0.125 0
0.046875 0.109375 0
0.0625 0.109375 0
0.046875 0.125 0
0.0625 0.125 0
0.6875 0 0
0.703125 0 0
0.6875 0.015625 0
0.703125 0.015625 0
0.703125 0 0
0.71875 0 0
0.703125 0.015625 0
0.71875 0.015625 0
0.6875 0.015625 0
0.703125 0.015625 0
0.6875 0.03125 0
0.703125 0.03125 0
0.703125 0.015625 0
0.71875 0.015625 0
0.703125 0.03125 0
0.71875 0.03125 0
0.6875 0.03125 0
0.703125 0.03125 0
0.6875 0.046875 0
0.703125 0.046875 0
0.703125 0.03125 0
0.71875 0.03125 0
0.703125 0.046875 0
0.71875 0.046875 0
0.703125 0.046875 0
0.71875 0.046875 0
0.703125 0.0625 0
0.71875 0.0625 0
0.71875 0.046875 0
0.734375 0.046875 0
0.71875 0.0625 0
0.734375 0.0625 0
0.375 0.28125 0
0.390625 0.28125 0
0.375 0.296875 0
0.390625 0.296875 0
0.390625 0.28125 0
0.40625 0.28125 0
0.390625 0.296875 0
0.40625 0.296875 0
0.375 0.296875 0
0.390625 0.296875 0
0.375 0.3125 0
0.390625 0.3125 0
0.390625 0.296875 0
0.40625 0.296875 0
0.390625 0.3125 0
0.40625 0.3125 0
0.71875 0.0625 0
0.734375 0.0625 0
0.71875 0.078125 0
0.734375 0.078125 0
0.71875 0.078125 0
0.734375 0.078125 0
0.71875 0.09375 0
0.734375 0.09375 0
0.28125 0.65625 0
0.296875 0.65625 0
0.28125 0.671875 0
0.296875 0.671875 0
0.296875 0.65625 0
0.3125 0.65625 0
0.296875 0.671875 0
0.3125 0.671875 0
0.28125 0.671875 0
0.296875 0.671875 0
[...]
POINT_DATA 54304
SCALARS U double 1
LOOKUP_TABLE default
0 0.20279 0 0.196498 0 0.196498 0 0.190524 0.154696 -0.0777223 0.149547 -0.0757213 0 0.23018 0 0.222993 0 0.222993 0 0.216042 0 0.216042 0 0.209309 0 0.209309 0 0.20279 0.202791 2.57092e-16 0.1965 2.49182e-16 0.1965 2.49182e-16 0.190526 2.41516e-16 -0.0777223 0.154696 -0.0757193 0.149548 0.23018 2.91324e-16 0.222994 2.82361e-16 0.222994 2.82361e-16 0.216042 2.73673e-16 0.216042 2.73673e-16 0.209309 2.65253e-16 0.209309 2.65253e-16 0.202791 2.57092e-16 0 0.118836 0 0.115139 0.118865 1.51137e-16 0.115139 1.46487e-16 0 0.130554 0 0.12645 0 0.12645 0 0.122613 0 0.178901 0 0.173346 0.178903 2.26883e-16 0.173348 2.19903e-16 0.10223 -0.0573899 0.0987408 -0.0562406 0.0987408 -0.0562406 0.0954067 -0.0547607 -0.0562406 -0.206735 -0.0547607 -0.200513 0.0954067 -0.0547607 0.0922983 -0.0533087 -0.0547607 -0.200513 -0.0533087 -0.194682 0.0922983 -0.0533087 0.0893529 -0.0515363 0 0.10818 0 0.10486 0 0.10486 0 0.101707 0 0.101707 0 0.0986307 0 0.0986307 0 0.0957078 -0.0573809 0.102245 -0.0562346 0.0987508 -0.206734 -0.0562346 -0.200509 -0.0547541 -0.0562346 0.0987508 -0.0547541 0.0954153 -0.200509 -0.0547541 -0.194677 -0.0533021 -0.0547541 0.0954153 -0.0533021 0.0923071 -0.0533021 0.0923071 -0.0515306 0.0893613 0.10818 1.37612e-16 0.104859 1.33378e-16 0.104859 1.33378e-16 0.101705 1.29274e-16 0.101705 1.29274e-16 0.0986289 1.25297e-16 0.0986289 1.25297e-16 0.0957059 1.21442e-16 0.069886 -0.0399042 0.0679593 -0.038436 0.0679593 -0.038436 0.0661438 -0.0369648 0.0661438 -0.0369648 0.0644204 -0.035505 0.0644204 -0.035505 0.0627848 -0.0340582 0.0627848 -0.0340582 0.0612056 -0.0325864 0.0612056 -0.0325864 0.0597175 -0.0313505 -0.0313505 -0.119799 -0.0299799 -0.115616 -0.0299799 -0.115616 -0.0285924 -0.111632 -0.0399138 0.0698751 -0.0384443 0.0679492 -0.0384443 0.0679492 -0.0369706 0.0661357 -0.0369706 0.0661357 -0.0355072 0.064415 -0.0355072 0.064415 -0.0340571 0.0627799 -0.0340571 0.0627799 -0.0325854 0.0611984 -0.0325854 0.0611984 -0.0313529 0.059711 0 0.115139 0 0.111622 0 0.111622 0 0.10818 0.115139 1.46487e-16 0.111622 1.4198e-16 0.111622 1.4198e-16 0.10818 1.37612e-16 -0.119806 -0.0313529 -0.115632 -0.0299838 -0.115632 -0.0299838 -0.111632 -0.0285924 0 0.0873474 0 0.0846785 0.0873467 1.10574e-16 0.0846785 1.07172e-16 0.20279 0.298699 0.199644 0.294011 0.298699 0.388117 0.294011 0.382021 0.199644 0.294011 0.196498 0.28941 0.294011 0.382021 0.28941 0.376018 0.364466 0.44049 0.3585 0.433441 0.3585 0.433441 0.35289 0.426597 0.35289 0.426597 0.347326 0.419923 0.347326 0.419923 0.342082 0.413374 0.440494 0.364469 0.433445 0.358504 0.433445 0.358504 0.426601 0.352894 0.426601 0.352894 0.419928 0.347329 0.419928 0.347329 0.413379 0.342086 0.342082 0.413374 0.336725 0.406908 0.336725 0.406908 0.331451 0.400415 0.413379 0.342086 0.406914 0.336729 0.406914 0.336729 0.400421 0.331456 0.126381 0.0639035 0.124424 0.0628892 0.0639035 1.60884e-16 0.0628892 1.5839e-16 0.124424 0.0628892 0.122452 0.0619034 0.0628892 1.5839e-16 0.0619034 1.55934e-16 0.373792 0.267136 0.367749 0.262769 0.267136 0.154696 0.262769 0.152121 0.367749 0.262769 0.361743 0.258486 0.262769 0.152121 0.258486 0.149547 0.4502 0.356106 0.44283 0.350315 0.361743 0.258486 0.356106 0.254291 0.258486 0.149547 0.254291 0.146945 0.356106 0.254291 0.350315 0.250101 0.44283 0.350315 0.435609 0.344485 0.435609 0.344485 0.428867 0.338998 -0.191386 -0.15518 -0.188183 -0.152556 -0.15518 -0.115632 -0.152556 -0.113632 -0.188183 -0.152556 -0.185058 -0.149968 -0.152556 -0.113632 -0.149968 -0.111632 0.509427 0.428867 0.501166 0.421987 0.428867 0.338998 0.421987 0.333569 0.501166 0.421987 0.493216 0.415308 0.421987 0.333569 0.415308 0.328194 0.196498 0.28941 0.193511 0.284919 0.28941 0.376018 0.284919 0.370058 0.193511 0.284919 0.190524 0.28056 0.284919 0.370058 0.28056 0.364466 -0.225744 -0.301946 -0.222469 -0.297488 -0.301946 -0.371578 -0.297488 -0.366245 -0.222469 -0.297488 -0.21911 -0.293176 -0.297488 -0.366245 -0.293176 -0.360741 -0.366245 -0.427241 -0.360741 -0.420605 -0.427241 -0.478801 -0.420605 -0.471458 -0.0757213 -0.187232 -0.0748914 -0.184523 -0.187232 -0.294573 -0.184523 -0.290204 -0.0748914 -0.184523 -0.0739291 -0.181892 -0.184523 -0.290204 -0.181892 -0.285932 -0.360741 -0.420605 -0.355097 -0.414197 -0.420605 -0.471458 -0.414197 -0.464282 -0.355097 -0.414197 -0.349753 -0.407931 -0.414197 -0.464282 -0.407931 -0.457338 -0.239396 -0.320525 -0.235887 -0.31576 -0.320525 -0.394783 -0.31576 -0.388871 -0.235887 -0.31576 -0.232403 -0.311077 -0.31576 -0.388871 -0.311077 -0.383042 0.216042 0.318223 0.212675 0.313221 0.318223 0.413497 0.313221 0.407 0.212675 0.313221 0.209309 0.308304 0.313221 0.407 0.308304 0.400604 0.209309 0.308304 0.206049 0.303459 0.308304 0.400604 0.303459 0.394311 0.206049 0.303459 0.20279 0.298699 0.303459 0.394311 0.298699 0.388117 0.154696 0.267136 0.152122 0.26277 0.267136 0.373792 0.26277 0.36775 0.152122 0.26277 0.149548 0.258487 0.26277 0.36775 0.258487 0.361745 0.149548 0.258487 0.146947 0.254293 0.258487 0.361745 0.254293 0.356109 0.254293 0.356109 0.250104 0.350318 0.356109 0.450202 0.350318 0.442833 -0.232403 -0.311077 -0.22911 -0.30646 -0.311077 -0.383042 -0.30646 -0.377291 -0.22911 -0.30646 -0.225744 -0.301946 -0.30646 -0.377291 -0.301946 -0.371578 0.350318 0.442833 0.344489 0.435613 0.344489 0.435613 0.339002 0.428871 0.190004 0.134607 0.187071 0.132562 0.134607 0.0762452 0.132562 0.0751033 0.187071 0.132562 0.184225 0.130557 0.132562 0.0751033 0.130557 0.0739935 0.339002 0.428871 0.333573 0.421991 0.428871 0.509432 0.421991 0.501171 0.333573 0.421991 0.328199 0.415313 0.421991 0.501171 0.415313 0.493222 0.388119 0.2987 0.382024 0.294013 0.2987 0.202791 0.294013 0.199645 0.382024 0.294013 0.376021 0.289412 0.294013 0.199645 0.289412 0.1965 -0.440228 -0.377435 -0.433373 -0.371763 -0.382948 -0.311087 -0.377435 -0.306513 -0.311087 -0.232457 -0.306513 -0.229081 -0.377435 -0.306513 -0.371763 -0.302098 -0.306513 -0.229081 -0.302098 -0.225753 -0.433373 -0.371763 -0.427029 -0.36599 -0.478802 -0.427029 -0.471403 -0.420513 -0.427029 -0.36599 -0.420513 -0.360561 0.23018 0.339028 0.226587 0.333704 0.339028 0.440537 0.333704 0.433615 0.226587 0.333704 0.222993 0.328463 0.333704 0.433615 0.328463 0.426803 -0.471403 -0.420513 -0.464249 -0.414154 -0.420513 -0.360561 -0.414154 -0.355139 -0.464249 -0.414154 -0.45732 -0.407924 -0.414154 -0.355139 -0.407924 -0.349758 0.184225 0.130557 0.181435 0.128603 0.130557 0.0739935 0.128603 0.0729119 0.181435 0.128603 0.178738 0.12668 0.128603 0.0729119 0.12668 0.0718591 0.222993 0.328463 0.219518 0.3233 0.328463 0.426803 0.3233 0.420098 0.219518 0.3233 0.216042 0.318223 0.3233 0.420098 0.318223 0.413497 0.0762374 0.134598 0.0750946 0.132553 0.134598 0.189996 0.132553 0.187061 0.0750946 0.132553 0.073984 0.130547 0.132553 0.187061 0.130547 0.184215 0.477617 0.402102 0.469954 0.395571 0.402102 0.317666 0.395571 0.312513 0.469954 0.395571 0.462568 0.389242 0.395571 0.312513 0.389242 0.307415 0.376021 0.289412 0.370061 0.284921 0.289412 0.1965 0.284921 0.193513 0.370061 0.284921 0.364469 0.280562 0.284921 0.193513 0.280562 0.190526 0.389242 0.307415 0.382759 0.302405 0.382759 0.302405 0.376676 0.297473 0.073984 0.130547 0.0729017 0.128592 0.130547 0.184215 0.128592 0.181425 0.0729017 0.128592 0.0718485 0.126669 0.128592 0.181425 0.126669 0.178727 0.376676 0.297473 0.370572 0.292686 0.370572 0.292686 0.364851 0.287973 -0.0739291 -0.181892 -0.073002 -0.179291 -0.181892 -0.285932 -0.179291 -0.281734 -0.073002 -0.179291 -0.0720907 -0.17673 -0.179291 -0.281734 -0.17673 -0.277573 -0.0720907 -0.17673 -0.0711934 -0.174207 -0.17673 -0.277573 -0.174207 -0.27348 -0.0711934 -0.174207 -0.070311 -0.171727 -0.174207 -0.27348 -0.171727 -0.269456 0.433749 0.364851 0.426739 0.358964 0.364851 0.287973 0.358964 0.28334 0.426739 0.358964 0.419922 0.353192 0.358964 0.28334 0.353192 0.278758 -0.394741 -0.320501 -0.388833 -0.315744 -0.320501 -0.239396 -0.315744 -0.235895 -0.388833 -0.315744 -0.382948 -0.311087 -0.315744 -0.235895 -0.311087 -0.232457 0.331451 0.400415 0.326079 0.394322 0.326079 0.394322 0.320991 0.388079 0.394322 0.453902 0.388079 0.446646 0.342066 0.269809 0.336401 0.265424 0.336401 0.265424 0.33099 0.261133 -0.253937 -0.340301 -0.250223 -0.335245 -0.340301 -0.419354 -0.335245 -0.413065 -0.250223 -0.335245 -0.246562 -0.330265 -0.335245 -0.413065 -0.330265 -0.406876 0.33099 0.261133 0.325862 0.256951 0.387594 0.325862 0.381367 0.320616 0.325862 0.256951 0.320616 0.252843 -0.246562 -0.330265 -0.242954 -0.325359 -0.330265 -0.406876 -0.325359 -0.400783 -0.242954 -0.325359 -0.239396 -0.320525 -0.325359 -0.400783 -0.320525 -0.394783 0.400421 0.331456 0.394328 0.326084 0.45391 0.394328 0.446654 0.388086 0.394328 0.326084 0.388086 0.320997 -0.294571 -0.18723 -0.2902 -0.184519 -0.18723 -0.0757193 -0.184519 -0.0748883 -0.2902 -0.184519 -0.285927 -0.181887 -0.184519 -0.0748883 -0.181887 -0.0739252 0.419922 0.353192 0.413163 0.347563 0.353192 0.278758 0.347563 0.274259 0.413163 0.347563 0.406865 0.342066 0.347563 0.274259 0.342066 0.269809 0.31767 0.402108 0.312517 0.395577 0.402108 0.477623 0.395577 0.469961 0.312517 0.395577 0.30742 0.389248 0.395577 0.469961 0.389248 0.462575 0.440537 0.339028 0.433615 0.333704 0.339028 0.23018 0.333704 0.226587 0.433615 0.333704 0.426803 0.328464 0.333704 0.226587 0.328464 0.222994 0.30742 0.389248 0.302411 0.382766 0.302411 0.382766 0.29748 0.376684 0.0893529 0.0189083 0.0878708 0.0187207 0.0189083 -0.0515363 0.0187207 -0.050926 0.0878708 0.0187207 0.086485 0.0183807 0.0187207 -0.050926 0.0183807 -0.0501942 0.29748 0.376684 0.292694 0.370581 0.292694 0.370581 0.287982 0.364862 0.413499 0.318224 0.407002 0.313222 0.318224 0.216042 0.313222 0.212676 0.407002 0.313222 0.400606 0.308305 0.313222 0.212676 0.308305 0.209309 0.426803 0.328464 0.420099 0.3233 0.328464 0.222994 0.3233 0.219518 0.420099 0.3233 0.413499 0.318224 0.3233 0.219518 0.318224 0.216042 0.400606 0.308305 0.394312 0.303461 0.308305 0.209309 0.303461 0.20605 0.394312 0.303461 0.388119 0.2987 0.303461 0.20605 0.2987 0.202791 0.086485 0.0183807 0.0851074 0.0180507 0.0183807 -0.0501942 0.0180507 -0.0494695 0.0851074 0.0180507 0.0837394 0.0177262 0.0180507 -0.0494695 0.0177262 -0.0487474 0.287982 0.364862 0.283352 0.358976 0.364862 0.43376 0.358976 0.42675 0.283352 0.358976 0.278772 0.353205 0.358976 0.42675 0.353205 0.419935 0.278772 0.353205 0.274274 0.347577 0.353205 0.419935 0.347577 0.413177 0.274274 0.347577 0.269826 0.342081 0.347577 0.413177 0.342081 0.406879 0.381367 0.320616 0.375243 0.31552 0.320616 0.252843 0.31552 0.248782 0.375243 0.31552 0.369537 0.310527 0.31552 0.248782 0.310527 0.244801 0.269826 0.342081 0.265442 0.336417 0.265442 0.336417 0.26115 0.331005 0.369537 0.310527 0.363679 0.305634 0.310527 0.244801 0.305634 0.240891 0.363679 0.305634 0.357977 0.300828 0.305634 0.240891 0.300828 0.237023 0.26115 0.331005 0.256966 0.325876 0.256966 0.325876 0.252857 0.320629 0.325876 0.387606 0.320629 0.381378 -0.285927 -0.181887 -0.281727 -0.179285 -0.181887 -0.0739252 -0.179285 -0.0729974 -0.281727 -0.179285 -0.277563 -0.176724 -0.179285 -0.0729974 -0.176724 -0.072086 -0.277563 -0.176724 -0.273469 -0.174202 -0.176724 -0.072086 -0.174202 -0.0711896 -0.273469 -0.174202 -0.269449 -0.171724 -0.174202 -0.0711896 -0.171724 -0.0703095 -0.291125 -0.339368 -0.286662 -0.334079 -0.339368 -0.380274 -0.334079 -0.37434 -0.286662 -0.334079 -0.282228 -0.328902 -0.334079 -0.37434 -0.328902 -0.368539 -0.309739 -0.361031 -0.304842 -0.355315 -0.304842 -0.355315 -0.30021 -0.349902 -0.282228 -0.328902 -0.277853 -0.323808 -0.328902 -0.368539 -0.323808 -0.362835 -0.277853 -0.323808 -0.273506 -0.318814 -0.323808 -0.362835 -0.318814 -0.35724 -0.30021 -0.349902 -0.295644 -0.344475 -0.295644 -0.344475 -0.291125 -0.339368 -0.380274 -0.412944 -0.37434 -0.406564 -0.412944 -0.436939 -0.406564 -0.429847 -0.37434 -0.406564 -0.368539 -0.400269 -0.406564 -0.429847 -0.400269 -0.423513 -0.368539 -0.400269 -0.362835 -0.394104 -0.400269 -0.423513 -0.394104 -0.41696 -0.362835 -0.394104 -0.35724 -0.38796 -0.394104 -0.41696 -0.38796 -0.410463 -0.423513 -0.437779 -0.41696 -0.430895 -0.437779 -0.442497 -0.430895 -0.435586 -0.41696 -0.430895 -0.410463 -0.424175 -0.430895 -0.435586 -0.424175 -0.428782 -0.349753 -0.407931 -0.344462 -0.401492 -0.344462 -0.401492 -0.339475 -0.395744 -0.407924 -0.349758 -0.401488 -0.344464 -0.401488 -0.344464 -0.39574 -0.339474 -0.206735 -0.276105 -0.203624 -0.271897 -0.276105 -0.339475 -0.271897 -0.334392 -0.203624 -0.271897 -0.200513 -0.267797 -0.271897 -0.334392 -0.267797 -0.329325 -0.339475 -0.395744 -0.334392 -0.389747 -0.395744 -0.443586 -0.389747 -0.43676 -0.334392 -0.389747 -0.329325 -0.383818 -0.389747 -0.43676 -0.383818 -0.430102 -0.200513 -0.267797 -0.197597 -0.263758 -0.267797 -0.329325 -0.263758 -0.324324 -0.197597 -0.263758 -0.194682 -0.259748 -0.263758 -0.324324 -0.259748 -0.319395 0.165212 0.243438 0.162643 0.23964 0.243438 0.31615 0.23964 0.311212 -0.329325 -0.383818 -0.324324 -0.377972 -0.383818 -0.430102 -0.377972 -0.423531 -0.324324 -0.377972 -0.319395 -0.372208 -0.377972 -0.423531 -0.372208 -0.417056 -0.361029 -0.309736 -0.355314 -0.30484 -0.355314 -0.30484 -0.349902 -0.300209 -0.194682 -0.259748 -0.191476 -0.255796 -0.259748 -0.319395 -0.255796 -0.314532 -0.255796 -0.314532 -0.251832 -0.309739 -0.349902 -0.300209 -0.344476 -0.295645 -0.344476 -0.295645 -0.339369 -0.291126 -0.319395 -0.372208 -0.314532 -0.366568 -0.372208 -0.417056 -0.366568 -0.410637 -0.314532 -0.366568 -0.309739 -0.361031 -0.366568 -0.410637 -0.361031 -0.404662 -0.35724 -0.38796 -0.351478 -0.381882 -0.38796 -0.410463 -0.381882 -0.404053 -0.351478 -0.381882 -0.346027 -0.37585 -0.381882 -0.404053 -0.37585 -0.397707 -0.410463 -0.424175 -0.404053 -0.417566 -0.424175 -0.428782 -0.417566 -0.422113 -0.404053 -0.417566 -0.397707 -0.411117 -0.417566 -0.422113 -0.411117 -0.415552 0.316156 0.243442 0.311219 0.239645 0.243442 0.165216 0.239645 0.162647 -0.346027 -0.37585 -0.340607 -0.369961 -0.37585 -0.397707 -0.369961 -0.391179 -0.340607 -0.369961 -0.335268 -0.364169 -0.369961 -0.391179 -0.364169 -0.385353 -0.303447 -0.407656 -0.298882 -0.401521 -0.298882 -0.401521 -0.294573 -0.395486 -0.294573 -0.395486 -0.290204 -0.389505 -0.290204 -0.389505 -0.285932 -0.3839 -0.285932 -0.3839 -0.281734 -0.378106 -0.3839 -0.473538 -0.378106 -0.466287 -0.281734 -0.378106 -0.277573 -0.37243 -0.378106 -0.466287 -0.37243 -0.459248 -0.277573 -0.37243 -0.27348 -0.36686 -0.37243 -0.459248 -0.36686 -0.452325 -0.27348 -0.36686 -0.269456 -0.361384 -0.36686 -0.452325 -0.361384 -0.445521 -0.44358 -0.39574 -0.436756 -0.389744 -0.39574 -0.339474 -0.389744 -0.334389 -0.436756 -0.389744 -0.430098 -0.383815 -0.389744 -0.334389 -0.383815 -0.329322 0.220296 0.266305 0.21702 0.262231 0.21702 0.262231 0.213652 0.258318 0.262231 0.301766 0.258318 0.297138 -0.339474 -0.276105 -0.334389 -0.271895 -0.276105 -0.206734 -0.271895 -0.203621 -0.334389 -0.271895 -0.329322 -0.267793 -0.271895 -0.203621 -0.267793 -0.200509 -0.430098 -0.383815 -0.423528 -0.377969 -0.383815 -0.329322 -0.377969 -0.324321 -0.423528 -0.377969 -0.417053 -0.372204 -0.377969 -0.324321 -0.372204 -0.319392 0.266298 0.220293 0.262227 0.217018 0.301762 0.262227 0.297135 0.258315 0.262227 0.217018 0.258315 0.21365 -0.329322 -0.267793 -0.324321 -0.263754 -0.267793 -0.200509 -0.263754 -0.197593 -0.324321 -0.263754 -0.319392 -0.259744 -0.263754 -0.197593 -0.259744 -0.194677 -0.417053 -0.372204 -0.410635 -0.366565 -0.372204 -0.319392 -0.366565 -0.314529 -0.410635 -0.366565 -0.40466 -0.361029 -0.366565 -0.314529 -0.361029 -0.309736 -0.319392 -0.259744 -0.314529 -0.255792 -0.259744 -0.194677 -0.255792 -0.191471 -0.314529 -0.255792 -0.309736 -0.251829 0.252857 0.320629 0.248794 0.315531 0.320629 0.381378 0.315531 0.375252 0.248794 0.315531 0.244811 0.310536 0.315531 0.375252 0.310536 0.369545 0.244811 0.310536 0.2409 0.305642 0.310536 0.369545 0.305642 0.363684 0.2409 0.305642 0.237032 0.300834 0.305642 0.363684 0.300834 0.35798 0.301408 0.364321 0.29668 0.358587 0.364321 0.419417 0.358587 0.4126 0.29668 0.358587 0.292031 0.352947 0.358587 0.4126 0.352947 0.406207 0.292031 0.352947 0.287459 0.347429 0.352947 0.406207 0.347429 0.399853 0.287459 0.347429 0.282969 0.341995 0.347429 0.399853 0.341995 0.393596 0.178901 0.263424 0.176124 0.259245 0.263424 0.342082 0.259245 0.336725 0.176124 0.259245 0.173346 0.255242 0.259245 0.336725 0.255242 0.331451 0.282969 0.341995 0.278526 0.336702 0.341995 0.393596 0.336702 0.387397 0.278526 0.336702 0.274335 0.331505 0.336702 0.387397 0.331505 0.381609 0.274335 0.331505 0.270052 0.326394 0.331505 0.381609 0.326394 0.375676 0.270052 0.326394 0.265859 0.321247 0.326394 0.375676 0.321247 0.369854 0.342086 0.263427 0.336729 0.259249 0.263427 0.178903 0.259249 0.176126 0.336729 0.259249 0.331456 0.255246 0.259249 0.176126 0.255246 0.173348 0.381609 0.423518 0.375676 0.416772 0.423518 0.455902 0.416772 0.448728 0.375676 0.416772 0.369854 0.410318 0.416772 0.448728 0.410318 0.441737 -0.436939 -0.412944 -0.429848 -0.406565 -0.412944 -0.380275 -0.406565 -0.374341 -0.429848 -0.406565 -0.423514 -0.40027 -0.406565 -0.374341 -0.40027 -0.368541 -0.442497 -0.437779 -0.435586 -0.430896 -0.437779 -0.423514 -0.430896 -0.416961 -0.435586 -0.430896 -0.428782 -0.424176 -0.430896 -0.416961 -0.424176 -0.410464 -0.423514 -0.40027 -0.416961 -0.394106 -0.40027 -0.368541 -0.394106 -0.362837 -0.416961 -0.394106 -0.410464 -0.387962 -0.394106 -0.362837 -0.387962 -0.357243 -0.380275 -0.339369 -0.374341 -0.334081 -0.339369 -0.291126 -0.334081 -0.286664 -0.374341 -0.334081 -0.368541 -0.328903 -0.334081 -0.286664 -0.328903 -0.28223 -0.368541 -0.328903 -0.362837 -0.32381 -0.328903 -0.28223 -0.32381 -0.277855 -0.362837 -0.32381 -0.357243 -0.318817 -0.32381 -0.277855 -0.318817 -0.27351 0.320991 0.388079 0.31615 0.382021 0.388079 0.446646 0.382021 0.439548 0.31615 0.382021 0.311212 0.376057 0.382021 0.439548 0.376057 0.432903 0.311212 0.376057 0.306171 0.370174 0.376057 0.432903 0.370174 0.42608 0.306171 0.370174 0.301408 0.364321 0.370174 0.42608 0.364321 0.419417 0.432903 0.480322 0.42608 0.472661 0.42608 0.472661 0.419417 0.465361 -0.428782 -0.424176 -0.422113 -0.417567 -0.424176 -0.410464 -0.417567 -0.404054 -0.422113 -0.417567 -0.415552 -0.411118 -0.417567 -0.404054 -0.411118 -0.397709 -0.410464 -0.387962 -0.404054 -0.381885 -0.387962 -0.357243 -0.381885 -0.351481 -0.404054 -0.381885 -0.397709 -0.375852 -0.381885 -0.351481 -0.375852 -0.34603 -0.397709 -0.375852 -0.391181 -0.369964 -0.375852 -0.34603 -0.369964 -0.340611 -0.391181 -0.369964 -0.385355 -0.364172 -0.369964 -0.340611 -0.364172 -0.335272 0.462671 0.406865 0.455196 0.400139 0.455196 0.400139 0.448056 0.393878 0.420335 0.369537 0.413838 0.363679 0.454927 0.413838 0.447636 0.407227 0.413838 0.363679 0.407227 0.357977 0.447636 0.407227 0.440562 0.400759 0.407227 0.357977 0.400759 0.352122 0.440562 0.400759 0.43362 0.394416 0.400759 0.352122 0.394416 0.346607 0.300828 0.237023 0.295871 0.233225 0.295871 0.233225 0.291234 0.229493 0.43362 0.394416 0.426809 0.388237 0.394416 0.346607 0.388237 0.341108 0.426809 0.388237 0.420124 0.382169 0.388237 0.341108 0.382169 0.335939 0.291234 0.229493 0.286596 0.225881 0.286596 0.225881 0.282269 0.222332 0.369545 0.420341 0.363684 0.413841 0.363684 0.413841 0.35798 0.407225 0.413841 0.454928 0.407225 0.447631 0.35798 0.407225 0.352123 0.400752 0.407225 0.447631 0.400752 0.440547 0.352123 0.400752 0.346613 0.394401 0.400752 0.440547 0.394401 0.433588 0.346613 0.394401 0.341127 0.388255 0.394401 0.433588 0.388255 0.426702 0.341127 0.388255 0.335972 0.382229 0.388255 0.426702 0.382229 0.420304 -0.070311 -0.171727 -0.0694433 -0.16929 -0.171727 -0.269456 -0.16929 -0.265503 -0.0694433 -0.16929 -0.0685727 -0.166914 -0.16929 -0.265503 -0.166914 -0.261634 -0.0685727 -0.166914 -0.0677158 -0.164428 -0.0677158 -0.164428 -0.0668711 -0.162131 -0.269456 -0.361384 -0.265503 -0.355999 -0.361384 -0.445521 -0.355999 -0.438827 -0.265503 -0.355999 -0.261634 -0.350684 -0.355999 -0.438827 -0.350684 -0.432236 -0.273506 -0.318814 -0.269217 -0.3