# vtk DataFile Version 3.0
#This file was generated by the deal.II library on 2018/12/4 at 0:47:15
ASCII
DATASET UNSTRUCTURED_GRID

POINTS 1552 double
0.625 0.875 0
0.75 0.875 0
0.625 1 0
0.75 1 0
0.25 0.625 0
0.375 0.625 0
0.25 0.75 0
0.375 0.75 0
0.125 0.75 0
0.25 0.75 0
0.125 0.875 0
0.25 0.875 0
0 0.875 0
0.125 0.875 0
0 1 0
0.125 1 0
0.125 0.875 0
0.25 0.875 0
0.125 1 0
0.25 1 0
0.625 0.625 0
0.75 0.625 0
0.625 0.75 0
0.75 0.75 0
0.75 0.75 0
0.875 0.75 0
0.75 0.875 0
0.875 0.875 0
0.75 0.875 0
0.875 0.875 0
0.75 1 0
0.875 1 0
0.875 0.875 0
1 0.875 0
0.875 1 0
1 1 0
0 0.125 0
0.0625 0.125 0
0 0.1875 0
0.0625 0.1875 0
0.0625 0.125 0
0.125 0.125 0
0.0625 0.1875 0
0.125 0.1875 0
0 0.1875 0
0.0625 0.1875 0
0 0.25 0
0.0625 0.25 0
0.0625 0.1875 0
0.125 0.1875 0
0.0625 0.25 0
0.125 0.25 0
0.25 0 0
0.3125 0 0
0.25 0.0625 0
0.3125 0.0625 0
0.3125 0 0
0.375 0 0
0.3125 0.0625 0
0.375 0.0625 0
0.25 0.0625 0
0.3125 0.0625 0
0.25 0.125 0
0.3125 0.125 0
0.3125 0.0625 0
0.375 0.0625 0
0.3125 0.125 0
0.375 0.125 0
0.375 0.25 0
0.4375 0.25 0
0.375 0.3125 0
0.4375 0.3125 0
0.4375 0.25 0
0.5 0.25 0
0.4375 0.3125 0
0.5 0.3125 0
0.375 0.3125 0
0.4375 0.3125 0
0.375 0.375 0
0.4375 0.375 0
0 0 0
0.0625 0 0
0 0.0625 0
0.0625 0.0625 0
0 0.0625 0
0.0625 0.0625 0
0 0.125 0
0.0625 0.125 0
0.625 0 0
0.6875 0 0
0.625 0.0625 0
0.6875 0.0625 0
0.6875 0 0
0.75 0 0
0.6875 0.0625 0
0.75 0.0625 0
0.625 0.0625 0
0.6875 0.0625 0
0.625 0.125 0
0.6875 0.125 0
0.6875 0.0625 0
0.75 0.0625 0
0.6875 0.125 0
0.75 0.125 0
0.875 0.125 0
0.9375 0.125 0
0.875 0.1875 0
0.9375 0.1875 0
0.9375 0.125 0
1 0.125 0
0.9375 0.1875 0
1 0.1875 0
0.875 0.1875 0
0.9375 0.1875 0
0.875 0.25 0
0.9375 0.25 0
0.9375 0.1875 0
1 0.1875 0
0.9375 0.25 0
1 0.25 0
0.5 0.25 0
0.5625 0.25 0
0.5 0.3125 0
0.5625 0.3125 0
0.5625 0.25 0
0.625 0.25 0
0.5625 0.3125 0
0.625 0.3125 0
0.5625 0.3125 0
0.625 0.3125 0
0.5625 0.375 0
0.625 0.375 0
0 0.25 0
0.0625 0.25 0
0 0.3125 0
0.0625 0.3125 0
0.0625 0.25 0
0.125 0.25 0
0.0625 0.3125 0
0.125 0.3125 0
0 0.3125 0
0.0625 0.3125 0
0 0.375 0
0.0625 0.375 0
0.125 0.25 0
0.1875 0.25 0
0.125 0.3125 0
0.1875 0.3125 0
0.1875 0.25 0
0.25 0.25 0
0.1875 0.3125 0
0.25 0.3125 0
0.25 0.125 0
0.3125 0.125 0
0.25 0.1875 0
0.3125 0.1875 0
0.3125 0.125 0
0.375 0.125 0
0.3125 0.1875 0
0.375 0.1875 0
0.25 0.1875 0
0.3125 0.1875 0
0.25 0.25 0
0.3125 0.25 0
0.3125 0.1875 0
0.375 0.1875 0
0.3125 0.25 0
0.375 0.25 0
0.375 0.1875 0
0.4375 0.1875 0
0.375 0.25 0
0.4375 0.25 0
0.75 0.25 0
0.8125 0.25 0
0.75 0.3125 0
0.8125 0.3125 0
0.8125 0.25 0
0.875 0.25 0
0.8125 0.3125 0
0.875 0.3125 0
0.875 0.25 0
0.9375 0.25 0
0.875 0.3125 0
0.9375 0.3125 0
0.9375 0.25 0
1 0.25 0
0.9375 0.3125 0
1 0.3125 0
0.9375 0.3125 0
1 0.3125 0
0.9375 0.375 0
1 0.375 0
0.25 0.25 0
0.3125 0.25 0
0.25 0.3125 0
0.3125 0.3125 0
0.3125 0.25 0
0.375 0.25 0
0.3125 0.3125 0
0.375 0.3125 0
0.25 0.3125 0
0.3125 0.3125 0
0.25 0.375 0
0.3125 0.375 0
0.3125 0.3125 0
0.375 0.3125 0
0.3125 0.375 0
0.375 0.375 0
0.625 0.125 0
0.6875 0.125 0
0.625 0.1875 0
0.6875 0.1875 0
0.6875 0.125 0
0.75 0.125 0
0.6875 0.1875 0
0.75 0.1875 0
0.625 0.1875 0
0.6875 0.1875 0
0.625 0.25 0
0.6875 0.25 0
0.6875 0.1875 0
0.75 0.1875 0
0.6875 0.25 0
0.75 0.25 0
0.9375 0 0
1 0 0
0.9375 0.0625 0
1 0.0625 0
0.9375 0.0625 0
1 0.0625 0
0.9375 0.125 0
1 0.125 0
0.625 0.25 0
0.6875 0.25 0
0.625 0.3125 0
0.6875 0.3125 0
0.6875 0.25 0
0.75 0.25 0
0.6875 0.3125 0
0.75 0.3125 0
0.625 0.3125 0
0.6875 0.3125 0
0.625 0.375 0
0.6875 0.375 0
0.6875 0.3125 0
0.75 0.3125 0
0.6875 0.375 0
0.75 0.375 0
0 0.625 0
0.0625 0.625 0
0 0.6875 0
0.0625 0.6875 0
0 0.6875 0
0.0625 0.6875 0
0 0.75 0
0.0625 0.75 0
0.9375 0.625 0
1 0.625 0
0.9375 0.6875 0
1 0.6875 0
0.9375 0.6875 0
1 0.6875 0
0.9375 0.75 0
1 0.75 0
0.25 0.375 0
0.3125 0.375 0
0.25 0.4375 0
0.3125 0.4375 0
0.3125 0.375 0
0.375 0.375 0
0.3125 0.4375 0
0.375 0.4375 0
0.25 0.4375 0
0.3125 0.4375 0
0.25 0.5 0
0.3125 0.5 0
0.3125 0.4375 0
0.375 0.4375 0
0.3125 0.5 0
0.375 0.5 0
0.3125 0.5 0
0.375 0.5 0
0.3125 0.5625 0
0.375 0.5625 0
0.25 0.5625 0
0.3125 0.5625 0
0.25 0.625 0
0.3125 0.625 0
0.3125 0.5625 0
0.375 0.5625 0
0.3125 0.625 0
0.375 0.625 0
0.375 0.5 0
0.4375 0.5 0
0.375 0.5625 0
0.4375 0.5625 0
0.375 0.5625 0
0.4375 0.5625 0
0.375 0.625 0
0.4375 0.625 0
0.4375 0.5625 0
0.5 0.5625 0
0.4375 0.625 0
0.5 0.625 0
0.375 0.375 0
0.4375 0.375 0
0.375 0.4375 0
0.4375 0.4375 0
0.4375 0.375 0
0.5 0.375 0
0.4375 0.4375 0
0.5 0.4375 0
0.375 0.4375 0
0.4375 0.4375 0
0.375 0.5 0
0.4375 0.5 0
0.4375 0.4375 0
0.5 0.4375 0
0.4375 0.5 0
0.5 0.5 0
0.375 0.625 0
0.4375 0.625 0
0.375 0.6875 0
0.4375 0.6875 0
0.4375 0.625 0
0.5 0.625 0
0.4375 0.6875 0
0.5 0.6875 0
0.375 0.6875 0
0.4375 0.6875 0
0.375 0.75 0
0.4375 0.75 0
0 0.75 0
0.0625 0.75 0
0 0.8125 0
0.0625 0.8125 0
0.0625 0.75 0
0.125 0.75 0
0.0625 0.8125 0
0.125 0.8125 0
0 0.8125 0
0.0625 0.8125 0
0 0.875 0
0.0625 0.875 0
0.0625 0.8125 0
0.125 0.8125 0
0.0625 0.875 0
0.125 0.875 0
0.5 0.375 0
0.5625 0.375 0
0.5 0.4375 0
0.5625 0.4375 0
0.5625 0.375 0
0.625 0.375 0
0.5625 0.4375 0
0.625 0.4375 0
0.5 0.4375 0
0.5625 0.4375 0
0.5 0.5 0
0.5625 0.5 0
0.5625 0.4375 0
0.625 0.4375 0
0.5625 0.5 0
0.625 0.5 0
0.625 0.375 0
0.6875 0.375 0
0.625 0.4375 0
0.6875 0.4375 0
0.6875 0.375 0
0.75 0.375 0
0.6875 0.4375 0
0.75 0.4375 0
0.625 0.4375 0
0.6875 0.4375 0
0.625 0.5 0
0.6875 0.5 0
0.6875 0.4375 0
0.75 0.4375 0
0.6875 0.5 0
0.75 0.5 0
0 0.375 0
0.0625 0.375 0
0 0.4375 0
0.0625 0.4375 0
0.0625 0.375 0
0.125 0.375 0
0.0625 0.4375 0
0.125 0.4375 0
0 0.4375 0
0.0625 0.4375 0
0 0.5 0
0.0625 0.5 0
0.0625 0.4375 0
0.125 0.4375 0
0.0625 0.5 0
0.125 0.5 0
0.5625 0.5 0
0.625 0.5 0
0.5625 0.5625 0
0.625 0.5625 0
0.5 0.5625 0
0.5625 0.5625 0
0.5 0.625 0
0.5625 0.625 0
0.5625 0.5625 0
0.625 0.5625 0
0.5625 0.625 0
0.625 0.625 0
0.625 0.5 0
0.6875 0.5 0
0.625 0.5625 0
0.6875 0.5625 0
0.625 0.5625 0
0.6875 0.5625 0
0.625 0.625 0
0.6875 0.625 0
0.6875 0.5625 0
0.75 0.5625 0
0.6875 0.625 0
0.75 0.625 0
0.5 0.625 0
0.5625 0.625 0
0.5 0.6875 0
0.5625 0.6875 0
0.5625 0.625 0
0.625 0.625 0
0.5625 0.6875 0
0.625 0.6875 0
0.5625 0.6875 0
0.625 0.6875 0
0.5625 0.75 0
0.625 0.75 0
0.125 0.375 0
0.1875 0.375 0
0.125 0.4375 0
0.1875 0.4375 0
0.1875 0.375 0
0.25 0.375 0
0.1875 0.4375 0
0.25 0.4375 0
0.125 0.4375 0
0.1875 0.4375 0
0.125 0.5 0
0.1875 0.5 0
0.1875 0.4375 0
0.25 0.4375 0
0.1875 0.5 0
0.25 0.5 0
0.75 0.375 0
0.8125 0.375 0
0.75 0.4375 0
0.8125 0.4375 0
0.8125 0.375 0
0.875 0.375 0
0.8125 0.4375 0
0.875 0.4375 0
0.75 0.4375 0
0.8125 0.4375 0
0.75 0.5 0
0.8125 0.5 0
0.8125 0.4375 0
0.875 0.4375 0
0.8125 0.5 0
0.875 0.5 0
0.875 0.75 0
0.9375 0.75 0
0.875 0.8125 0
0.9375 0.8125 0
0.9375 0.75 0
1 0.75 0
0.9375 0.8125 0
1 0.8125 0
0.875 0.8125 0
0.9375 0.8125 0
0.875 0.875 0
0.9375 0.875 0
0.9375 0.8125 0
1 0.8125 0
0.9375 0.875 0
1 0.875 0
0.875 0.375 0
0.9375 0.375 0
0.875 0.4375 0
0.9375 0.4375 0
0.9375 0.375 0
1 0.375 0
0.9375 0.4375 0
1 0.4375 0
0.875 0.4375 0
0.9375 0.4375 0
0.875 0.5 0
0.9375 0.5 0
0.9375 0.4375 0
1 0.4375 0
0.9375 0.5 0
1 0.5 0
0 0.5 0
0.0625 0.5 0
0 0.5625 0
0.0625 0.5625 0
0.0625 0.5 0
0.125 0.5 0
0.0625 0.5625 0
0.125 0.5625 0
0 0.5625 0
0.0625 0.5625 0
0 0.625 0
0.0625 0.625 0
0.0625 0.5625 0
0.125 0.5625 0
0.0625 0.625 0
0.125 0.625 0
0.125 0.5 0
0.1875 0.5 0
0.125 0.5625 0
0.1875 0.5625 0
0.1875 0.5 0
0.25 0.5 0
0.1875 0.5625 0
0.25 0.5625 0
0.125 0.5625 0
0.1875 0.5625 0
0.125 0.625 0
0.1875 0.625 0
0.1875 0.5625 0
0.25 0.5625 0
0.1875 0.625 0
0.25 0.625 0
0.125 0.625 0
0.1875 0.625 0
0.125 0.6875 0
0.1875 0.6875 0
0.1875 0.625 0
0.25 0.625 0
0.1875 0.6875 0
0.25 0.6875 0
0.125 0.6875 0
0.1875 0.6875 0
0.125 0.75 0
0.1875 0.75 0
0.1875 0.6875 0
0.25 0.6875 0
0.1875 0.75 0
0.25 0.75 0
0.25 0.75 0
0.3125 0.75 0
0.25 0.8125 0
0.3125 0.8125 0
0.3125 0.75 0
0.375 0.75 0
0.3125 0.8125 0
0.375 0.8125 0
0.25 0.8125 0
0.3125 0.8125 0
0.25 0.875 0
0.3125 0.875 0
0.3125 0.8125 0
0.375 0.8125 0
0.3125 0.875 0
0.375 0.875 0
0.375 0.75 0
0.4375 0.75 0
0.375 0.8125 0
0.4375 0.8125 0
0.4375 0.75 0
0.5 0.75 0
0.4375 0.8125 0
0.5 0.8125 0
0.375 0.8125 0
0.4375 0.8125 0
0.375 0.875 0
0.4375 0.875 0
0.4375 0.8125 0
0.5 0.8125 0
0.4375 0.875 0
0.5 0.875 0
0.25 0.875 0
0.3125 0.875 0
0.25 0.9375 0
0.3125 0.9375 0
0.3125 0.875 0
0.375 0.875 0
0.3125 0.9375 0
0.375 0.9375 0
0.25 0.9375 0
0.3125 0.9375 0
0.25 1 0
0.3125 1 0
0.3125 0.9375 0
0.375 0.9375 0
0.3125 1 0
0.375 1 0
0.375 0.875 0
0.4375 0.875 0
0.375 0.9375 0
0.4375 0.9375 0
0.4375 0.875 0
0.5 0.875 0
0.4375 0.9375 0
0.5 0.9375 0
0.375 0.9375 0
0.4375 0.9375 0
0.375 1 0
0.4375 1 0
0.4375 0.9375 0
0.5 0.9375 0
0.4375 1 0
0.5 1 0
0.75 0.5 0
0.8125 0.5 0
0.75 0.5625 0
0.8125 0.5625 0
0.8125 0.5 0
0.875 0.5 0
0.8125 0.5625 0
0.875 0.5625 0
0.75 0.5625 0
0.8125 0.5625 0
0.75 0.625 0
0.8125 0.625 0
0.8125 0.5625 0
0.875 0.5625 0
0.8125 0.625 0
0.875 0.625 0
0.875 0.5 0
0.9375 0.5 0
0.875 0.5625 0
0.9375 0.5625 0
0.9375 0.5 0
1 0.5 0
0.9375 0.5625 0
1 0.5625 0
0.875 0.5625 0
0.9375 0.5625 0
0.875 0.625 0
0.9375 0.625 0
0.9375 0.5625 0
1 0.5625 0
0.9375 0.625 0
1 0.625 0
0.75 0.625 0
0.8125 0.625 0
0.75 0.6875 0
0.8125 0.6875 0
0.8125 0.625 0
0.875 0.625 0
0.8125 0.6875 0
0.875 0.6875 0
0.75 0.6875 0
0.8125 0.6875 0
0.75 0.75 0
0.8125 0.75 0
0.8125 0.6875 0
0.875 0.6875 0
0.8125 0.75 0
0.875 0.75 0
0.5 0.75 0
0.5625 0.75 0
0.5 0.8125 0
0.5625 0.8125 0
0.5625 0.75 0
0.625 0.75 0
0.5625 0.8125 0
0.625 0.8125 0
0.5 0.8125 0
0.5625 0.8125 0
0.5 0.875 0
0.5625 0.875 0
0.5625 0.8125 0
0.625 0.8125 0
0.5625 0.875 0
0.625 0.875 0
0.625 0.75 0
0.6875 0.75 0
0.625 0.8125 0
0.6875 0.8125 0
0.6875 0.75 0
0.75 0.75 0
0.6875 0.8125 0
0.75 0.8125 0
0.625 0.8125 0
0.6875 0.8125 0
0.625 0.875 0
0.6875 0.875 0
0.6875 0.8125 0
0.75 0.8125 0
0.6875 0.875 0
0.75 0.875 0
0.5 0.875 0
0.5625 0.875 0
0.5 0.9375 0
0.5625 0.9375 0
0.5625 0.875 0
0.625 0.875 0
0.5625 0.9375 0
0.625 0.9375 0
0.5 0.9375 0
0.5625 0.9375 0
0.5 1 0
0.5625 1 0
0.5625 0.9375 0
0.625 0.9375 0
0.5625 1 0
0.625 1 0
0.4375 0.3125 0
0.46875 0.3125 0
0.4375 0.34375 0
0.46875 0.34375 0
[...]
POINT_DATA 1552
SCALARS U double 1
LOOKUP_TABLE default
-0.14181 0.259572 -0.127384 0.235375 0.313686 -0.1883 0.291903 -0.163981 0.384807 0.291903 0.343547 0.257544 0 0.343547 0 0.307533 0.343547 0.257544 0.307533 0.235375 -0.18826 0.313777 -0.163931 0.291572 0.291572 0.385171 0.259572 0.343875 0.259572 0.343875 0.235375 0.307533 0.343875 1.38578e-16 0.307533 1.22295e-16 0 0.43794 0 0.407404 0.43794 0.727635 0.407404 0.673378 0 0.407404 0 0.379977 0.407404 0.673378 0.379977 0.633665 0.639817 0.176525 0.5939 0.162238 0.176525 -0.346266 0.162238 -0.324888 0.5939 0.162238 0.551137 0.148098 0.162238 -0.324888 0.148098 -0.304208 -0.274801 -0.586449 -0.259751 -0.549219 -0.586449 -0.706671 -0.549219 -0.662595 -0.259751 -0.549219 -0.245063 -0.515171 0 0.502701 0 0.465517 0 0.465517 0 0.43794 -0.346266 0.176525 -0.325059 0.162144 0.176525 0.639817 0.162144 0.593982 -0.325059 0.162144 -0.305566 0.148565 0.162144 0.593982 0.148565 0.551316 0.727671 0.437952 0.673423 0.407418 0.437952 2.9337e-16 0.407418 2.75596e-16 0.673423 0.407418 0.633704 0.37999 0.407418 2.75596e-16 0.37999 2.58898e-16 -0.706671 -0.589042 -0.662595 -0.549662 -0.589042 -0.275358 -0.549662 -0.260136 -0.549662 -0.260136 -0.515283 -0.245181 0 0.379977 0 0.353701 0.379977 0.633665 0.353701 0.591554 0 0.353701 0 0.329655 0.633665 0.675216 0.591554 0.626138 0.675216 0.479773 0.626138 0.444356 0.551137 0.148098 0.510403 0.1355 0.148098 -0.304208 0.1355 -0.291402 0.510403 0.1355 0.479773 0.123609 0.1355 -0.291402 0.123609 -0.274801 -0.291402 -0.619653 -0.274801 -0.586449 0.479981 0.67531 0.444468 0.626198 0.67531 0.633704 0.626198 0.591581 0.633704 0.37999 0.591581 0.35371 0.37999 2.58898e-16 0.35371 2.43212e-16 0.35371 2.43212e-16 0.329661 2.28477e-16 0.479773 0.123609 0.444356 0.113293 0.123609 -0.274801 0.113293 -0.259751 0.444356 0.113293 0.412387 0.103452 0.113293 -0.259751 0.103452 -0.245063 -0.305566 0.148565 -0.287184 0.136014 0.148565 0.551316 0.136014 0.510679 -0.287184 0.136014 -0.275358 0.124172 0.136014 0.510679 0.124172 0.479981 0.502701 3.32432e-16 0.465524 3.12291e-16 0.465524 3.12291e-16 0.437952 2.9337e-16 -0.275358 0.124172 -0.260136 0.11328 0.124172 0.479981 0.11328 0.444468 -0.260136 0.11328 -0.245181 0.103406 0.11328 0.444468 0.103406 0.412403 0 0.253822 0 0.236184 0 0.236184 0 0.228477 0.253858 1.77938e-16 0.236266 1.67157e-16 0.236266 1.67157e-16 0.228609 1.5703e-16 0.412387 0.103452 0.384718 0.094774 0.103452 -0.245063 0.094774 -0.231184 0.384718 0.094774 0.358299 0.0869603 0.094774 -0.231184 0.0869603 -0.21813 0.0869603 -0.21813 0.0796028 -0.206183 0.333414 0.0796028 0.313686 0.0626927 0.0796028 -0.206183 0.0626927 -0.1883 -0.21813 -0.454501 -0.206183 -0.426238 -0.206183 -0.426238 -0.1883 -0.400361 -0.426238 -0.513248 -0.400361 -0.479037 -0.245063 -0.515171 -0.231184 -0.485017 -0.515171 -0.621072 -0.485017 -0.580025 -0.231184 -0.485017 -0.21813 -0.454501 -0.485017 -0.580025 -0.454501 -0.546737 -0.1883 -0.400361 -0.176141 -0.373488 -0.400361 -0.479037 -0.373488 -0.450697 -0.176141 -0.373488 -0.163981 -0.349863 0 0.228477 0 0.213595 0.228477 0.384807 0.213595 0.364177 0 0.213595 0 0.171774 0.213595 0.364177 0.171774 0.343547 -0.621072 -0.515283 -0.580025 -0.485044 -0.515283 -0.245181 -0.485044 -0.231217 -0.580025 -0.485044 -0.546737 -0.454502 -0.485044 -0.231217 -0.454502 -0.218128 -0.245181 0.103406 -0.231217 0.0947576 0.103406 0.412403 0.0947576 0.384721 -0.231217 0.0947576 -0.218128 0.0869691 0.0947576 0.384721 0.0869691 0.358314 0 0.329655 0 0.308608 0.329655 0.550899 0.308608 0.512377 0 0.308608 0 0.28831 0.308608 0.512377 0.28831 0.478376 -0.454502 -0.218128 -0.426224 -0.206157 -0.513248 -0.426224 -0.479037 -0.400331 -0.426224 -0.206157 -0.400331 -0.18826 -0.218128 0.0869691 -0.206157 0.07964 -0.206157 0.07964 -0.18826 0.0627586 0.07964 0.333454 0.0627586 0.313777 -0.479037 -0.400331 -0.450697 -0.373441 -0.400331 -0.18826 -0.373441 -0.176095 -0.373441 -0.176095 -0.349848 -0.163931 0.550899 0.582591 0.512377 0.541291 0.582591 0.412387 0.541291 0.384718 0.512377 0.541291 0.478376 0.504946 0.541291 0.384718 0.504946 0.358299 0.412403 0.582618 0.384721 0.541302 0.582618 0.550913 0.541302 0.512386 0.384721 0.541302 0.358314 0.504962 0.541302 0.512386 0.504962 0.47839 0.385171 0.228609 0.364523 0.213758 0.228609 1.5703e-16 0.213758 1.47516e-16 0.364523 0.213758 0.343875 0.171937 0.213758 1.47516e-16 0.171937 1.38578e-16 0.550913 0.329661 0.512386 0.308612 0.329661 2.28477e-16 0.308612 2.14634e-16 0.512386 0.308612 0.47839 0.288317 0.308612 2.14634e-16 0.288317 2.0163e-16 0 0.28831 0 0.270025 0.28831 0.478376 0.270025 0.447831 0 0.270025 0 0.253822 0.270025 0.447831 0.253822 0.420278 0.478376 0.504946 0.447831 0.472399 0.504946 0.358299 0.472399 0.333414 0.447831 0.472399 0.420278 0.442765 0.472399 0.333414 0.442765 0.313686 0.420278 0.442765 0.38668 0.413434 0.442765 0.313686 0.413434 0.302794 0.38668 0.413434 0.384807 0.338355 0.413434 0.302794 0.338355 0.291903 0.291903 0.0639611 0.274724 0.0707615 0.0639611 -0.163981 0.0707615 -0.15526 0.274724 0.0707615 0.257544 0.0687779 0.0707615 -0.15526 0.0687779 -0.144312 -0.163981 -0.349863 -0.15526 -0.328805 -0.349863 -0.422204 -0.328805 -0.394088 -0.15526 -0.328805 -0.144312 -0.309054 -0.328805 -0.394088 -0.309054 -0.370606 0.257544 0.0687779 0.24646 0.0665918 0.0687779 -0.144312 0.0665918 -0.135255 0.24646 0.0665918 0.235375 0.0649399 0.0665918 -0.135255 0.0649399 -0.127384 -0.144312 -0.309054 -0.135255 -0.291736 -0.309054 -0.370606 -0.291736 -0.350347 -0.135255 -0.291736 -0.127384 -0.276772 -0.291736 -0.350347 -0.276772 -0.332871 0.358314 0.504962 0.333454 0.472437 0.504962 0.47839 0.472437 0.447858 0.333454 0.472437 0.313777 0.442809 0.472437 0.447858 0.442809 0.420332 0.47839 0.288317 0.447858 0.270041 0.288317 2.0163e-16 0.270041 1.89414e-16 0.447858 0.270041 0.420332 0.253858 0.270041 1.89414e-16 0.253858 1.77938e-16 0.313777 0.442809 0.302675 0.413488 0.442809 0.420332 0.413488 0.386782 0.302675 0.413488 0.291572 0.338372 0.413488 0.386782 0.338372 0.385171 -0.422204 -0.349848 -0.394088 -0.328454 -0.349848 -0.163931 -0.328454 -0.15601 -0.394088 -0.328454 -0.370606 -0.308594 -0.328454 -0.15601 -0.308594 -0.14181 -0.163931 0.0638207 -0.15601 0.0702382 0.0638207 0.291572 0.0702382 0.275572 -0.15601 0.0702382 -0.14181 0.0588807 0.0702382 0.275572 0.0588807 0.259572 -0.370606 -0.308594 -0.350347 -0.291265 -0.308594 -0.14181 -0.291265 -0.134597 -0.350347 -0.291265 -0.332871 -0.276772 -0.291265 -0.134597 -0.276772 -0.127384 -0.549219 -0.605907 -0.532195 -0.603879 -0.605907 -0.662595 -0.603879 -0.624827 -0.532195 -0.603879 -0.515171 -0.568122 -0.603879 -0.624827 -0.568122 -0.621072 0.502701 0.699449 0.484109 0.673981 0.699449 0.835961 0.673981 0.80586 0.484109 0.673981 0.465517 0.649474 0.673981 0.80586 0.649474 0.776581 0.465517 0.649474 0.451728 0.624869 0.649474 0.776581 0.624869 0.747143 0.451728 0.624869 0.43794 0.582787 0.624869 0.747143 0.582787 0.727635 0.835961 0.90048 0.80586 0.868216 0.90048 0.887451 0.868216 0.855705 0.80586 0.868216 0.776581 0.836965 0.868216 0.855705 0.836965 0.8251 0.887451 0.797995 0.855705 0.769361 0.797995 0.639817 0.769361 0.616858 0.855705 0.769361 0.8251 0.741665 0.769361 0.616858 0.741665 0.5939 0.776581 0.836965 0.747143 0.807795 0.836965 0.8251 0.807795 0.795715 0.747143 0.807795 0.727635 0.779715 0.807795 0.795715 0.779715 0.767475 0.8251 0.741665 0.795715 0.714895 0.741665 0.5939 0.714895 0.572518 0.795715 0.714895 0.767475 0.689107 0.714895 0.572518 0.689107 0.551137 -0.662595 -0.606129 -0.624827 -0.604014 -0.606129 -0.549662 -0.604014 -0.532473 -0.624827 -0.604014 -0.621072 -0.568177 -0.604014 -0.532473 -0.568177 -0.515283 0.727635 0.779715 0.700507 0.752451 0.779715 0.767475 0.752451 0.740093 0.700507 0.752451 0.673378 0.725375 0.752451 0.740093 0.725375 0.713238 0.767475 0.689107 0.740093 0.664054 0.689107 0.551137 0.664054 0.53077 0.740093 0.664054 0.713238 0.639989 0.664054 0.53077 0.639989 0.510403 0.673378 0.725375 0.653522 0.699169 0.725375 0.713238 0.699169 0.68485 0.653522 0.699169 0.633665 0.65444 0.699169 0.68485 0.65444 0.675216 0.713238 0.639989 0.68485 0.616891 0.639989 0.510403 0.616891 0.495088 0.68485 0.616891 0.675216 0.577494 0.616891 0.495088 0.577494 0.479773 -0.346266 -0.574023 -0.335577 -0.555305 -0.574023 -0.752345 -0.555305 -0.727461 -0.335577 -0.555305 -0.324888 -0.537151 -0.555305 -0.727461 -0.537151 -0.70339 -0.752345 -0.865875 -0.727461 -0.837094 -0.865875 -0.904837 -0.837094 -0.874741 -0.727461 -0.837094 -0.70339 -0.809278 -0.837094 -0.874741 -0.809278 -0.845664 -0.324888 -0.537151 -0.314548 -0.519559 -0.537151 -0.70339 -0.519559 -0.680186 -0.314548 -0.519559 -0.304208 -0.50279 -0.519559 -0.680186 -0.50279 -0.657755 -0.70339 -0.809278 -0.680186 -0.78249 -0.809278 -0.845664 -0.78249 -0.81769 -0.680186 -0.78249 -0.657755 -0.756718 -0.78249 -0.81769 -0.756718 -0.790911 0.353701 0.472628 0.341678 0.469815 0.472628 0.591554 0.469815 0.556241 0.341678 0.469815 0.329655 0.440277 0.469815 0.556241 0.440277 0.550899 0.591554 0.608846 0.556241 0.603521 0.608846 0.626138 0.603521 0.588342 0.556241 0.603521 0.550899 0.566745 0.603521 0.588342 0.566745 0.582591 0.626138 0.535247 0.588342 0.531714 0.535247 0.444356 0.531714 0.428371 0.588342 0.531714 0.582591 0.497489 0.531714 0.428371 0.497489 0.412387 -0.304208 -0.50279 -0.297805 -0.485916 -0.50279 -0.657755 -0.485916 -0.635218 -0.297805 -0.485916 -0.291402 -0.455528 -0.485916 -0.635218 -0.455528 -0.619653 -0.657755 -0.756718 -0.635218 -0.73263 -0.756718 -0.790911 -0.73263 -0.765265 -0.635218 -0.73263 -0.619653 -0.709701 -0.73263 -0.765265 -0.709701 -0.740543 -0.619653 -0.709701 -0.603051 -0.687569 -0.709701 -0.740543 -0.687569 -0.714397 -0.603051 -0.687569 -0.586449 -0.64656 -0.687569 -0.714397 -0.64656 -0.706671 0.444468 0.535333 0.428435 0.531766 0.535333 0.626198 0.531766 0.588383 0.428435 0.531766 0.412403 0.49751 0.531766 0.588383 0.49751 0.582618 0.626198 0.60889 0.588383 0.603551 0.60889 0.591581 0.603551 0.556262 0.588383 0.603551 0.582618 0.566766 0.603551 0.556262 0.566766 0.550913 0.591581 0.472645 0.556262 0.469828 0.472645 0.35371 0.469828 0.341686 0.556262 0.469828 0.550913 0.440287 0.469828 0.341686 0.440287 0.329661 -0.904837 -0.865875 -0.874741 -0.837151 -0.865875 -0.752345 -0.837151 -0.727562 -0.874741 -0.837151 -0.845664 -0.809405 -0.837151 -0.727562 -0.809405 -0.703624 -0.752345 -0.574023 -0.727562 -0.555414 -0.574023 -0.346266 -0.555414 -0.335663 -0.727562 -0.555414 -0.703624 -0.537452 -0.555414 -0.335663 -0.537452 -0.325059 -0.845664 -0.809405 -0.81769 -0.78272 -0.809405 -0.703624 -0.78272 -0.680594 -0.81769 -0.78272 -0.790911 -0.75711 -0.78272 -0.680594 -0.75711 -0.658469 -0.703624 -0.537452 -0.680594 -0.520138 -0.537452 -0.325059 -0.520138 -0.315312 -0.680594 -0.520138 -0.658469 -0.503527 -0.520138 -0.315312 -0.503527 -0.305566 -0.790911 -0.75711 -0.765265 -0.732483 -0.75711 -0.658469 -0.732483 -0.637192 -0.765265 -0.732483 -0.740543 -0.708449 -0.732483 -0.637192 -0.708449 -0.616695 -0.658469 -0.503527 -0.637192 -0.487524 -0.503527 -0.305566 -0.487524 -0.296375 -0.637192 -0.487524 -0.616695 -0.472307 -0.487524 -0.296375 -0.472307 -0.287184 -0.740543 -0.708449 -0.714397 -0.686546 -0.708449 -0.616695 -0.686546 -0.59524 -0.714397 -0.686546 -0.706671 -0.647857 -0.686546 -0.59524 -0.647857 -0.589042 -0.616695 -0.472307 -0.59524 -0.458054 -0.472307 -0.287184 -0.458054 -0.281271 -0.59524 -0.458054 -0.589042 -0.4322 -0.458054 -0.281271 -0.4322 -0.275358 0.639817 0.797995 0.616899 0.769392 0.797995 0.887451 0.769392 0.855728 0.616899 0.769392 0.593982 0.741728 0.769392 0.855728 0.741728 0.825145 0.887451 0.90048 0.855728 0.868231 0.90048 0.835961 0.868231 0.80587 0.855728 0.868231 0.825145 0.836995 0.868231 0.80587 0.836995 0.7766 0.593982 0.741728 0.572649 0.71499 0.741728 0.825145 0.71499 0.795782 0.572649 0.71499 0.551316 0.689235 0.71499 0.795782 0.689235 0.767562 0.825145 0.836995 0.795782 0.807839 0.836995 0.7766 0.807839 0.747172 0.795782 0.807839 0.767562 0.779772 0.807839 0.747172 0.779772 0.727671 0.835961 0.699449 0.80587 0.673987 0.699449 0.502701 0.673987 0.484112 0.80587 0.673987 0.7766 0.649486 0.673987 0.484112 0.649486 0.465524 0.7766 0.649486 0.747172 0.624887 0.649486 0.465524 0.624887 0.451738 0.747172 0.624887 0.727671 0.582811 0.624887 0.451738 0.582811 0.437952 0.551316 0.689235 0.530997 0.66421 0.689235 0.767562 0.66421 0.740195 0.530997 0.66421 0.510679 0.64016 0.66421 0.740195 0.64016 0.713349 0.767562 0.779772 0.740195 0.752517 0.779772 0.727671 0.752517 0.700547 0.740195 0.752517 0.713349 0.725445 0.752517 0.700547 0.725445 0.673423 0.510679 0.64016 0.49533 0.617058 0.64016 0.713349 0.617058 0.684959 0.49533 0.617058 0.479981 0.577645 0.617058 0.684959 0.577645 0.67531 0.713349 0.725445 0.684959 0.699238 0.725445 0.673423 0.699238 0.653563 0.684959 0.699238 0.67531 0.654507 0.699238 0.653563 0.654507 0.633704 0.253822 0.33705 0.245003 0.337538 0.33705 0.420278 0.337538 0.403479 0.245003 0.337538 0.236184 0.329342 0.337538 0.403479 0.329342 0.38668 0.236184 0.329342 0.23233 0.321733 0.329342 0.38668 0.321733 0.385743 0.23233 0.321733 0.228477 0.306642 0.321733 0.385743 0.306642 0.384807 0.420332 0.337095 0.403557 0.337609 0.337095 0.253858 0.337609 0.245062 0.403557 0.337609 0.386782 0.329455 0.337609 0.245062 0.329455 0.236266 0.386782 0.329455 0.385976 0.321906 0.329455 0.236266 0.321906 0.232438 0.385976 0.321906 0.385171 0.30689 0.321906 0.232438 0.30689 0.228609 0.358299 0.222629 0.345856 0.222159 0.222629 0.0869603 0.222159 0.0832816 0.345856 0.222159 0.333414 0.206508 0.222159 0.0832816 0.206508 0.0796028 -0.454501 -0.500619 -0.440369 -0.49912 -0.500619 -0.546737 -0.49912 -0.516232 -0.440369 -0.49912 -0.426238 -0.469743 -0.49912 -0.516232 -0.469743 -0.513248 -0.373488 -0.412092 -0.361675 -0.410622 -0.412092 -0.450697 -0.410622 -0.424879 -0.361675 -0.410622 -0.349863 -0.386033 -0.410622 -0.424879 -0.386033 -0.422204 -0.546737 -0.500619 -0.516232 -0.499117 -0.500619 -0.454502 -0.499117 -0.440363 -0.516232 -0.499117 -0.513248 -0.469736 -0.499117 -0.440363 -0.469736 -0.426224 0.0869691 0.222641 0.0833045 0.222183 0.222641 0.358314 0.222183 0.345884 0.0833045 0.222183 0.07964 0.206547 0.222183 0.345884 0.206547 0.333454 -0.450697 -0.412069 -0.424879 -0.410602 -0.412069 -0.373441 -0.410602 -0.361645 -0.424879 -0.410602 -0.422204 -0.386026 -0.410602 -0.361645 -0.386026 -0.349848 
