# vtk DataFile Version 3.0
#This file was generated by the deal.II library on 2018/12/12 at 9:49:45
ASCII
DATASET UNSTRUCTURED_GRID

POINTS 1816 double
-1 -1 0
-0.75 -1 0
-1 -0.75 0
-0.75 -0.75 0
-0.75 -1 0
-0.5 -1 0
-0.75 -0.75 0
-0.5 -0.75 0
-1 -0.75 0
-0.75 -0.75 0
-1 -0.5 0
-0.75 -0.5 0
-0.75 -0.75 0
-0.5 -0.75 0
-0.75 -0.5 0
-0.5 -0.5 0
-0.5 -1 0
-0.25 -1 0
-0.5 -0.75 0
-0.25 -0.75 0
-0.25 -1 0
0 -1 0
-0.25 -0.75 0
0 -0.75 0
0 -1 0
0.25 -1 0
0 -0.75 0
0.25 -0.75 0
0.25 -1 0
0.5 -1 0
0.25 -0.75 0
0.5 -0.75 0
0.25 -0.75 0
0.5 -0.75 0
0.25 -0.5 0
0.5 -0.5 0
0.5 -1 0
0.75 -1 0
0.5 -0.75 0
0.75 -0.75 0
0.75 -1 0
1 -1 0
0.75 -0.75 0
1 -0.75 0
0.5 -0.75 0
0.75 -0.75 0
0.5 -0.5 0
0.75 -0.5 0
0.75 -0.75 0
1 -0.75 0
0.75 -0.5 0
1 -0.5 0
-1 0.5 0
-0.75 0.5 0
-1 0.75 0
-0.75 0.75 0
-0.75 0.5 0
-0.5 0.5 0
-0.75 0.75 0
-0.5 0.75 0
-1 0.75 0
-0.75 0.75 0
-1 1 0
-0.75 1 0
-0.75 0.75 0
-0.5 0.75 0
-0.75 1 0
-0.5 1 0
-0.5 0.5 0
-0.25 0.5 0
-0.5 0.75 0
-0.25 0.75 0
-0.5 0.75 0
-0.25 0.75 0
-0.5 1 0
-0.25 1 0
-0.25 0.75 0
0 0.75 0
-0.25 1 0
0 1 0
0 0.75 0
0.25 0.75 0
0 1 0
0.25 1 0
0.25 0.75 0
0.5 0.75 0
0.25 1 0
0.5 1 0
0.5 0.5 0
0.75 0.5 0
0.5 0.75 0
0.75 0.75 0
0.75 0.5 0
1 0.5 0
0.75 0.75 0
1 0.75 0
0.5 0.75 0
0.75 0.75 0
0.5 1 0
0.75 1 0
0.75 0.75 0
1 0.75 0
0.75 1 0
1 1 0
-0.75 -0.5 0
-0.625 -0.5 0
-0.75 -0.375 0
-0.625 -0.375 0
-0.625 -0.5 0
-0.5 -0.5 0
-0.625 -0.375 0
-0.5 -0.375 0
-0.5 -0.5 0
-0.375 -0.5 0
-0.5 -0.375 0
-0.375 -0.375 0
-0.375 -0.5 0
-0.25 -0.5 0
-0.375 -0.375 0
-0.25 -0.375 0
0.25 -0.5 0
0.375 -0.5 0
0.25 -0.375 0
0.375 -0.375 0
0.375 -0.5 0
0.5 -0.5 0
0.375 -0.375 0
0.5 -0.375 0
0.5 -0.5 0
0.625 -0.5 0
0.5 -0.375 0
0.625 -0.375 0
0.625 -0.5 0
0.75 -0.5 0
0.625 -0.375 0
0.75 -0.375 0
-0.75 0.375 0
-0.625 0.375 0
-0.75 0.5 0
-0.625 0.5 0
-0.625 0.375 0
-0.5 0.375 0
-0.625 0.5 0
-0.5 0.5 0
-0.5 0.375 0
-0.375 0.375 0
-0.5 0.5 0
-0.375 0.5 0
-0.375 0.375 0
-0.25 0.375 0
-0.375 0.5 0
-0.25 0.5 0
0.25 0.375 0
0.375 0.375 0
0.25 0.5 0
0.375 0.5 0
0.375 0.375 0
0.5 0.375 0
0.375 0.5 0
0.5 0.5 0
0.5 0.375 0
0.625 0.375 0
0.5 0.5 0
0.625 0.5 0
0.625 0.375 0
0.75 0.375 0
0.625 0.5 0
0.75 0.5 0
-1 -0.25 0
-0.875 -0.25 0
-1 -0.125 0
-0.875 -0.125 0
-0.875 -0.25 0
-0.75 -0.25 0
-0.875 -0.125 0
-0.75 -0.125 0
-1 -0.125 0
-0.875 -0.125 0
-1 0 0
-0.875 0 0
-0.25 -0.5 0
-0.125 -0.5 0
-0.25 -0.375 0
-0.125 -0.375 0
-0.125 -0.5 0
0 -0.5 0
-0.125 -0.375 0
0 -0.375 0
-0.25 -0.375 0
-0.125 -0.375 0
-0.25 -0.25 0
-0.125 -0.25 0
-0.125 -0.375 0
0 -0.375 0
-0.125 -0.25 0
0 -0.25 0
0 -0.5 0
0.125 -0.5 0
0 -0.375 0
0.125 -0.375 0
0.125 -0.5 0
0.25 -0.5 0
0.125 -0.375 0
0.25 -0.375 0
0 -0.375 0
0.125 -0.375 0
0 -0.25 0
0.125 -0.25 0
0.125 -0.375 0
0.25 -0.375 0
0.125 -0.25 0
0.25 -0.25 0
0.75 -0.25 0
0.875 -0.25 0
0.75 -0.125 0
0.875 -0.125 0
0.875 -0.25 0
1 -0.25 0
0.875 -0.125 0
1 -0.125 0
0.875 -0.125 0
1 -0.125 0
0.875 0 0
1 0 0
-1 0 0
-0.875 0 0
-1 0.125 0
-0.875 0.125 0
-1 0.125 0
-0.875 0.125 0
-1 0.25 0
-0.875 0.25 0
-0.875 0.125 0
-0.75 0.125 0
-0.875 0.25 0
-0.75 0.25 0
-0.25 0.25 0
-0.125 0.25 0
-0.25 0.375 0
-0.125 0.375 0
-0.125 0.25 0
0 0.25 0
-0.125 0.375 0
0 0.375 0
-0.25 0.375 0
-0.125 0.375 0
-0.25 0.5 0
-0.125 0.5 0
-0.125 0.375 0
0 0.375 0
-0.125 0.5 0
0 0.5 0
0 0.25 0
0.125 0.25 0
0 0.375 0
0.125 0.375 0
0.125 0.25 0
0.25 0.25 0
0.125 0.375 0
0.25 0.375 0
0 0.375 0
0.125 0.375 0
0 0.5 0
0.125 0.5 0
0.125 0.375 0
0.25 0.375 0
0.125 0.5 0
0.25 0.5 0
0.875 0 0
1 0 0
0.875 0.125 0
1 0.125 0
0.75 0.125 0
0.875 0.125 0
0.75 0.25 0
0.875 0.25 0
0.875 0.125 0
1 0.125 0
0.875 0.25 0
1 0.25 0
-0.5 -0.75 0
-0.375 -0.75 0
-0.5 -0.625 0
-0.375 -0.625 0
-0.375 -0.75 0
-0.25 -0.75 0
-0.375 -0.625 0
-0.25 -0.625 0
-0.5 -0.625 0
-0.375 -0.625 0
-0.5 -0.5 0
-0.375 -0.5 0
-0.375 -0.625 0
-0.25 -0.625 0
-0.375 -0.5 0
-0.25 -0.5 0
-0.25 -0.75 0
-0.125 -0.75 0
-0.25 -0.625 0
-0.125 -0.625 0
-0.125 -0.75 0
0 -0.75 0
-0.125 -0.625 0
0 -0.625 0
-0.25 -0.625 0
-0.125 -0.625 0
-0.25 -0.5 0
-0.125 -0.5 0
-0.125 -0.625 0
0 -0.625 0
-0.125 -0.5 0
0 -0.5 0
-1 -0.5 0
-0.875 -0.5 0
-1 -0.375 0
-0.875 -0.375 0
-0.875 -0.5 0
-0.75 -0.5 0
-0.875 -0.375 0
-0.75 -0.375 0
-1 -0.375 0
-0.875 -0.375 0
-1 -0.25 0
-0.875 -0.25 0
-0.875 -0.375 0
-0.75 -0.375 0
-0.875 -0.25 0
-0.75 -0.25 0
0 -0.75 0
0.125 -0.75 0
0 -0.625 0
0.125 -0.625 0
0.125 -0.75 0
0.25 -0.75 0
0.125 -0.625 0
0.25 -0.625 0
0 -0.625 0
0.125 -0.625 0
0 -0.5 0
0.125 -0.5 0
0.125 -0.625 0
0.25 -0.625 0
0.125 -0.5 0
0.25 -0.5 0
0.75 -0.5 0
0.875 -0.5 0
0.75 -0.375 0
0.875 -0.375 0
0.875 -0.5 0
1 -0.5 0
0.875 -0.375 0
1 -0.375 0
0.75 -0.375 0
0.875 -0.375 0
0.75 -0.25 0
0.875 -0.25 0
0.875 -0.375 0
1 -0.375 0
0.875 -0.25 0
1 -0.25 0
-1 0.25 0
-0.875 0.25 0
-1 0.375 0
-0.875 0.375 0
-0.875 0.25 0
-0.75 0.25 0
-0.875 0.375 0
-0.75 0.375 0
-1 0.375 0
-0.875 0.375 0
-1 0.5 0
-0.875 0.5 0
-0.875 0.375 0
-0.75 0.375 0
-0.875 0.5 0
-0.75 0.5 0
-0.25 0.5 0
-0.125 0.5 0
-0.25 0.625 0
-0.125 0.625 0
-0.125 0.5 0
0 0.5 0
-0.125 0.625 0
0 0.625 0
-0.25 0.625 0
-0.125 0.625 0
-0.25 0.75 0
-0.125 0.75 0
-0.125 0.625 0
0 0.625 0
-0.125 0.75 0
0 0.75 0
0.75 0.25 0
0.875 0.25 0
0.75 0.375 0
0.875 0.375 0
0.875 0.25 0
1 0.25 0
0.875 0.375 0
1 0.375 0
0.75 0.375 0
0.875 0.375 0
0.75 0.5 0
0.875 0.5 0
0.875 0.375 0
1 0.375 0
0.875 0.5 0
1 0.5 0
0 0.5 0
0.125 0.5 0
0 0.625 0
0.125 0.625 0
0.125 0.5 0
0.25 0.5 0
0.125 0.625 0
0.25 0.625 0
0 0.625 0
0.125 0.625 0
0 0.75 0
0.125 0.75 0
0.125 0.625 0
0.25 0.625 0
0.125 0.75 0
0.25 0.75 0
0.25 0.5 0
0.375 0.5 0
0.25 0.625 0
0.375 0.625 0
0.375 0.5 0
0.5 0.5 0
0.375 0.625 0
0.5 0.625 0
0.25 0.625 0
0.375 0.625 0
0.25 0.75 0
0.375 0.75 0
0.375 0.625 0
0.5 0.625 0
0.375 0.75 0
0.5 0.75 0
-0.625 -0.375 0
-0.5625 -0.375 0
-0.625 -0.3125 0
-0.5625 -0.3125 0
-0.5625 -0.375 0
-0.5 -0.375 0
-0.5625 -0.3125 0
-0.5 -0.3125 0
-0.625 -0.3125 0
-0.5625 -0.3125 0
-0.625 -0.25 0
-0.5625 -0.25 0
-0.5625 -0.3125 0
-0.5 -0.3125 0
-0.5625 -0.25 0
-0.5 -0.25 0
-0.625 -0.25 0
-0.5625 -0.25 0
-0.625 -0.1875 0
-0.5625 -0.1875 0
-0.5625 -0.25 0
-0.5 -0.25 0
-0.5625 -0.1875 0
-0.5 -0.1875 0
-0.5625 -0.1875 0
-0.5 -0.1875 0
-0.5625 -0.125 0
-0.5 -0.125 0
-0.5 -0.375 0
-0.4375 -0.375 0
-0.5 -0.3125 0
-0.4375 -0.3125 0
-0.4375 -0.375 0
-0.375 -0.375 0
-0.4375 -0.3125 0
-0.375 -0.3125 0
-0.5 -0.3125 0
-0.4375 -0.3125 0
-0.5 -0.25 0
-0.4375 -0.25 0
-0.4375 -0.3125 0
-0.375 -0.3125 0
-0.4375 -0.25 0
-0.375 -0.25 0
-0.5 -0.25 0
-0.4375 -0.25 0
-0.5 -0.1875 0
-0.4375 -0.1875 0
-0.4375 -0.25 0
-0.375 -0.25 0
-0.4375 -0.1875 0
-0.375 -0.1875 0
-0.5 -0.1875 0
-0.4375 -0.1875 0
-0.5 -0.125 0
-0.4375 -0.125 0
-0.3125 -0.125 0
-0.25 -0.125 0
-0.3125 -0.0625 0
-0.25 -0.0625 0
-0.375 -0.0625 0
-0.3125 -0.0625 0
-0.375 0 0
-0.3125 0 0
-0.3125 -0.0625 0
-0.25 -0.0625 0
-0.3125 0 0
-0.25 0 0
-0.125 -0.25 0
-0.0625 -0.25 0
-0.125 -0.1875 0
-0.0625 -0.1875 0
-0.0625 -0.25 0
0 -0.25 0
-0.0625 -0.1875 0
0 -0.1875 0
-0.0625 -0.1875 0
0 -0.1875 0
-0.0625 -0.125 0
0 -0.125 0
-0.25 -0.125 0
-0.1875 -0.125 0
-0.25 -0.0625 0
-0.1875 -0.0625 0
-0.25 -0.0625 0
-0.1875 -0.0625 0
-0.25 0 0
-0.1875 0 0
-0.1875 -0.0625 0
-0.125 -0.0625 0
-0.1875 0 0
-0.125 0 0
0.375 -0.375 0
0.4375 -0.375 0
0.375 -0.3125 0
0.4375 -0.3125 0
0.4375 -0.375 0
0.5 -0.375 0
0.4375 -0.3125 0
0.5 -0.3125 0
0.375 -0.3125 0
0.4375 -0.3125 0
0.375 -0.25 0
0.4375 -0.25 0
0.4375 -0.3125 0
0.5 -0.3125 0
0.4375 -0.25 0
0.5 -0.25 0
0 -0.25 0
0.0625 -0.25 0
0 -0.1875 0
0.0625 -0.1875 0
0.0625 -0.25 0
0.125 -0.25 0
0.0625 -0.1875 0
0.125 -0.1875 0
0 -0.1875 0
0.0625 -0.1875 0
0 -0.125 0
0.0625 -0.125 0
0.1875 -0.125 0
0.25 -0.125 0
0.1875 -0.0625 0
0.25 -0.0625 0
0.125 -0.0625 0
0.1875 -0.0625 0
0.125 0 0
0.1875 0 0
0.375 -0.25 0
0.4375 -0.25 0
0.375 -0.1875 0
0.4375 -0.1875 0
0.4375 -0.25 0
0.5 -0.25 0
0.4375 -0.1875 0
0.5 -0.1875 0
0.4375 -0.1875 0
0.5 -0.1875 0
0.4375 -0.125 0
0.5 -0.125 0
0.25 -0.125 0
0.3125 -0.125 0
0.25 -0.0625 0
0.3125 -0.0625 0
0.25 -0.0625 0
0.3125 -0.0625 0
0.25 0 0
0.3125 0 0
0.3125 -0.0625 0
0.375 -0.0625 0
0.3125 0 0
0.375 0 0
0.5 -0.375 0
0.5625 -0.375 0
0.5 -0.3125 0
0.5625 -0.3125 0
0.5625 -0.375 0
0.625 -0.375 0
0.5625 -0.3125 0
0.625 -0.3125 0
0.5 -0.3125 0
0.5625 -0.3125 0
0.5 -0.25 0
0.5625 -0.25 0
0.5625 -0.3125 0
0.625 -0.3125 0
0.5625 -0.25 0
0.625 -0.25 0
0.5 -0.25 0
0.5625 -0.25 0
0.5 -0.1875 0
0.5625 -0.1875 0
0.5625 -0.25 0
0.625 -0.25 0
0.5625 -0.1875 0
0.625 -0.1875 0
0.5 -0.1875 0
0.5625 -0.1875 0
0.5 -0.125 0
0.5625 -0.125 0
0.6875 -0.125 0
0.75 -0.125 0
0.6875 -0.0625 0
0.75 -0.0625 0
0.625 -0.0625 0
0.6875 -0.0625 0
0.625 0 0
0.6875 0 0
0.6875 -0.0625 0
0.75 -0.0625 0
0.6875 0 0
0.75 0 0
-0.75 0 0
-0.6875 0 0
-0.75 0.0625 0
-0.6875 0.0625 0
-0.6875 0 0
-0.625 0 0
-0.6875 0.0625 0
-0.625 0.0625 0
-0.75 0.0625 0
-0.6875 0.0625 0
-0.75 0.125 0
-0.6875 0.125 0
-0.5625 0.125 0
-0.5 0.125 0
-0.5625 0.1875 0
-0.5 0.1875 0
-0.625 0.1875 0
-0.5625 0.1875 0
-0.625 0.25 0
-0.5625 0.25 0
-0.5625 0.1875 0
-0.5 0.1875 0
-0.5625 0.25 0
-0.5 0.25 0
-0.625 0.25 0
-0.5625 0.25 0
-0.625 0.3125 0
-0.5625 0.3125 0
-0.5625 0.25 0
-0.5 0.25 0
-0.5625 0.3125 0
-0.5 0.3125 0
-0.625 0.3125 0
-0.5625 0.3125 0
-0.625 0.375 0
-0.5625 0.375 0
-0.5625 0.3125 0
-0.5 0.3125 0
-0.5625 0.375 0
-0.5 0.375 0
-0.375 0 0
-0.3125 0 0
-0.375 0.0625 0
-0.3125 0.0625 0
-0.3125 0 0
-0.25 0 0
-0.3125 0.0625 0
-0.25 0.0625 0
-0.3125 0.0625 0
-0.25 0.0625 0
-0.3125 0.125 0
-0.25 0.125 0
-0.5 0.125 0
-0.4375 0.125 0
-0.5 0.1875 0
-0.4375 0.1875 0
-0.5 0.1875 0
-0.4375 0.1875 0
-0.5 0.25 0
-0.4375 0.25 0
-0.4375 0.1875 0
-0.375 0.1875 0
-0.4375 0.25 0
-0.375 0.25 0
-0.1875 0 0
-0.125 0 0
-0.1875 0.0625 0
-0.125 0.0625 0
-0.25 0.0625 0
-0.1875 0.0625 0
-0.25 0.125 0
-0.1875 0.125 0
-0.0625 0.125 0
0 0.125 0
-0.0625 0.1875 0
0 0.1875 0
-0.125 0.1875 0
-0.0625 0.1875 0
-0.125 0.25 0
-0.0625 0.25 0
-0.0625 0.1875 0
0 0.1875 0
-0.0625 0.25 0
0 0.25 0
-0.5 0.25 0
-0.4375 0.25 0
-0.5 0.3125 0
-0.4375 0.3125 0
-0.4375 0.25 0
-0.375 0.25 0
-0.4375 0.3125 0
-0.375 0.3125 0
-0.5 0.3125 0
-0.4375 0.3125 0
-0.5 0.375 0
-0.4375 0.375 0
-0.4375 0.3125 0
[...]
POINT_DATA 1816
SCALARS x_displacement double 1
LOOKUP_TABLE default
0 0 0 0.00228977 0 0 0.00228977 0.00353459 0 0.00228977 0 0.00455344 0.00228977 0.00353459 0.00455344 0.00789804 0 0 0.00353459 0.00394551 0 0 0.00394551 0.00307345 0 0 0.00307345 0.00148445 0 0 0.00148445 0.000419978 0.00148445 0.000419978 0.00551393 0.00341795 0 0 0.000419978 0.000205447 0 0 0.000205447 0 0.000419978 0.000205447 0.00341795 0.00195355 0.000205447 0 0.00195355 0 0 0.00195355 0 0.000205447 0.00195355 0.00341795 0.000205447 0.000419978 0 0.000205447 0 0 0.000205447 0.000419978 0 0 0.00341795 0.00551393 0.000419978 0.00148445 0.000419978 0.00148445 0 0 0.00148445 0.00307345 0 0 0.00307345 0.00394551 0 0 0.00394551 0.00353459 0 0 0.00789804 0.00455344 0.00353459 0.00228977 0.00455344 0 0.00228977 0 0.00353459 0.00228977 0 0 0.00228977 0 0 0 0.00455344 0.0063665 0.00632164 0.00896844 0.0063665 0.00789804 0.00896844 0.011161 0.00789804 0.00909043 0.011161 0.0128455 0.00909043 0.00967859 0.0128455 0.0136989 0.00551393 0.00434187 0.0087795 0.00767736 0.00434187 0.00341795 0.00767736 0.00659245 0.00341795 0.00266954 0.00659245 0.00538484 0.00266954 0.00195355 0.00538484 0.0038902 0.0038902 0.00538484 0.00195355 0.00266954 0.00538484 0.00659245 0.00266954 0.00341795 0.00659245 0.00767736 0.00341795 0.00434187 0.00767736 0.0087795 0.00434187 0.00551393 0.0136989 0.0128455 0.00967859 0.00909043 0.0128455 0.011161 0.00909043 0.00789804 0.011161 0.00896844 0.00789804 0.0063665 0.00896844 0.00632164 0.0063665 0.00455344 0 0.00440809 0 0.00557481 0.00440809 0.00888619 0.00557481 0.0119625 0 0.00557481 0 0.00598602 0.00967859 0.00941589 0.0136989 0.0133635 0.00941589 0.00835447 0.0133635 0.0119208 0.0136989 0.0133635 0.0183934 0.0176664 0.0133635 0.0119208 0.0176664 0.0157239 0.00835447 0.00690938 0.0119208 0.010166 0.00690938 0.00551393 0.010166 0.0087795 0.0119208 0.010166 0.0157239 0.0138911 0.010166 0.0087795 0.0138911 0.0132309 0.0069626 0.0034733 0.0108945 0.00506325 0.0034733 0 0.00506325 0 0.00506325 0 0.00598602 0 0 0.00598602 0 0.00506325 0 0.00506325 0 0.0034733 0.00506325 0.0108945 0.0034733 0.0069626 0.0132309 0.0138911 0.0087795 0.010166 0.0138911 0.0157239 0.010166 0.0119208 0.0087795 0.010166 0.00551393 0.00690938 0.010166 0.0119208 0.00690938 0.00835447 0.0157239 0.0176664 0.0119208 0.0133635 0.0176664 0.0183934 0.0133635 0.0136989 0.0119208 0.0133635 0.00835447 0.00941589 0.0133635 0.0136989 0.00941589 0.00967859 0.00598602 0 0.00557481 0 0.0119625 0.00557481 0.00888619 0.00440809 0.00557481 0 0.00440809 0 0.00353459 0.00387315 0.00548738 0.00619615 0.00387315 0.00394551 0.00619615 0.00647859 0.00548738 0.00619615 0.00789804 0.00909043 0.00619615 0.00647859 0.00909043 0.00967859 0.00394551 0.00366967 0.00647859 0.00619938 0.00366967 0.00307345 0.00619938 0.00539037 0.00647859 0.00619938 0.00967859 0.00941589 0.00619938 0.00539037 0.00941589 0.00835447 0 0.00242853 0 0.00327278 0.00242853 0.00455344 0.00327278 0.00632164 0 0.00327278 0 0.00440809 0.00327278 0.00632164 0.00440809 0.00888619 0.00307345 0.00228253 0.00539037 0.00427836 0.00228253 0.00148445 0.00427836 0.00314597 0.00539037 0.00427836 0.00835447 0.00690938 0.00427836 0.00314597 0.00690938 0.00551393 0.00195355 0.00109963 0.0038902 0.0020619 0.00109963 0 0.0020619 0 0.0038902 0.0020619 0.0069626 0.0034733 0.0020619 0 0.0034733 0 0 0.0034733 0 0.0020619 0.0034733 0.0069626 0.0020619 0.0038902 0 0.0020619 0 0.00109963 0.0020619 0.0038902 0.00109963 0.00195355 0.00551393 0.00690938 0.00314597 0.00427836 0.00690938 0.00835447 0.00427836 0.00539037 0.00314597 0.00427836 0.00148445 0.00228253 0.00427836 0.00539037 0.00228253 0.00307345 0.00888619 0.00440809 0.00632164 0.00327278 0.00440809 0 0.00327278 0 0.00632164 0.00327278 0.00455344 0.00242853 0.00327278 0 0.00242853 0 0.00835447 0.00941589 0.00539037 0.00619938 0.00941589 0.00967859 0.00619938 0.00647859 0.00539037 0.00619938 0.00307345 0.00366967 0.00619938 0.00647859 0.00366967 0.00394551 0.00967859 0.00909043 0.00647859 0.00619615 0.00909043 0.00789804 0.00619615 0.00548738 0.00647859 0.00619615 0.00394551 0.00387315 0.00619615 0.00548738 0.00387315 0.00353459 0.00896844 0.0101186 0.0107487 0.0121358 0.0101186 0.011161 0.0121358 0.0133469 0.0107487 0.0121358 0.0130142 0.0147814 0.0121358 0.0133469 0.0147814 0.0162064 0.0130142 0.0147814 0.0158708 0.0184207 0.0147814 0.0162064 0.0184207 0.0202671 0.0184207 0.0202671 0.0218013 0.0236118 0.011161 0.012081 0.0133469 0.0143672 0.012081 0.0128455 0.0143672 0.0151735 0.0133469 0.0143672 0.0162064 0.0172346 0.0143672 0.0151735 0.0172346 0.0178967 0.0162064 0.0172346 0.0202671 0.021017 0.0172346 0.0178967 0.021017 0.0210572 0.0202671 0.021017 0.0236118 0.0244372 0.0233473 0.0225069 0.0248889 0.0234248 0.026015 0.0248889 0.025998 0.024818 0.0248889 0.0234248 0.024818 0.0230389 0.0176664 0.0168004 0.0194817 0.0184552 0.0168004 0.0157239 0.0184552 0.017457 0.0184552 0.017457 0.0195958 0.0188725 0.0225069 0.0216507 0.0234248 0.0221445 0.0234248 0.0221445 0.0230389 0.0217077 0.0221445 0.0210327 0.0217077 0.0208117 0.00767736 0.00714072 0.0100368 0.00956261 0.00714072 0.00659245 0.00956261 0.00898145 0.0100368 0.00956261 0.0130579 0.0128125 0.00956261 0.00898145 0.0128125 0.0122618 0.0157239 0.0146808 0.017457 0.0165812 0.0146808 0.0138911 0.0165812 0.0159083 0.017457 0.0165812 0.0188725 0.018371 0.0180839 0.0187571 0.0202776 0.0213319 0.0198029 0.0202776 0.0208117 0.0217077 0.0130579 0.0128125 0.0168692 0.0172773 0.0128125 0.0122618 0.0172773 0.0169898 0.0172773 0.0169898 0.0217014 0.0212502 0.0187571 0.019846 0.0213319 0.0229702 0.0213319 0.0229702 0.0230389 0.024818 0.0229702 0.0243331 0.024818 0.025998 0.00659245 0.00601297 0.00898145 0.00826932 0.00601297 0.00538484 0.00826932 0.00741484 0.00898145 0.00826932 0.0122618 0.0113383 0.00826932 0.00741484 0.0113383 0.0100796 0.0122618 0.0113383 0.0169898 0.0155982 0.0113383 0.0100796 0.0155982 0.0134896 0.0169898 0.0155982 0.0212502 0.0197905 0.0140438 0.0108945 0.0164405 0.0125227 0.0200045 0.0164405 0.0212011 0.0175868 0.0164405 0.0125227 0.0175868 0.0133329 0.0133329 0.0175868 0.0125227 0.0164405 0.0175868 0.0212011 0.0164405 0.0200045 0.0125227 0.0164405 0.0108945 0.0140438 0.0197905 0.0212502 0.0155982 0.0169898 0.0134896 0.0155982 0.0100796 0.0113383 0.0155982 0.0169898 0.0113383 0.0122618 0.0100796 0.0113383 0.00741484 0.00826932 0.0113383 0.0122618 0.00826932 0.00898145 0.00741484 0.00826932 0.00538484 0.00601297 0.00826932 0.00898145 0.00601297 0.00659245 0.025998 0.024818 0.0243331 0.0229702 0.024818 0.0230389 0.0229702 0.0213319 0.0229702 0.0213319 0.019846 0.0187571 0.0212502 0.0217014 0.0169898 0.0172773 0.0169898 0.0172773 0.0122618 0.0128125 0.0172773 0.0168692 0.0128125 0.0130579 0.0217077 0.0208117 0.0202776 0.0198029 0.0213319 0.0202776 0.0187571 0.0180839 0.018371 0.0188725 0.0165812 0.017457 0.0159083 0.0165812 0.0138911 0.0146808 0.0165812 0.017457 0.0146808 0.0157239 0.0122618 0.0128125 0.00898145 0.00956261 0.0128125 0.0130579 0.00956261 0.0100368 0.00898145 0.00956261 0.00659245 0.00714072 0.00956261 0.0100368 0.00714072 0.00767736 0.0208117 0.0217077 0.0210327 0.0221445 0.0217077 0.0230389 0.0221445 0.0234248 0.0221445 0.0234248 0.0216507 0.0225069 0.0188725 0.0195958 0.017457 0.0184552 0.017457 0.0184552 0.0157239 0.0168004 0.0184552 0.0194817 0.0168004 0.0176664 0.0230389 0.024818 0.0234248 0.0248889 0.024818 0.025998 0.0248889 0.026015 0.0234248 0.0248889 0.0225069 0.0233473 0.0244372 0.0236118 0.021017 0.0202671 0.0210572 0.021017 0.0178967 0.0172346 0.021017 0.0202671 0.0172346 0.0162064 0.0178967 0.0172346 0.0151735 0.0143672 0.0172346 0.0162064 0.0143672 0.0133469 0.0151735 0.0143672 0.0128455 0.012081 0.0143672 0.0133469 0.012081 0.011161 0.0236118 0.0218013 0.0202671 0.0184207 0.0202671 0.0184207 0.0162064 0.0147814 0.0184207 0.0158708 0.0147814 0.0130142 0.0162064 0.0147814 0.0133469 0.0121358 0.0147814 0.0130142 0.0121358 0.0107487 0.0133469 0.0121358 0.011161 0.0101186 0.0121358 0.0107487 0.0101186 0.00896844 0.00632164 0.00770183 0.00749972 0.00919604 0.00770183 0.00896844 0.00919604 0.0107487 0.00749972 0.00919604 0.00888619 0.0110288 0.00919604 0.0107487 0.0110288 0.0130142 0.00888619 0.0110288 0.0104484 0.013181 0.0110288 0.0130142 0.013181 0.0158708 0.0104484 0.013181 0.0119625 0.0154227 0.013181 0.0158708 0.0154227 0.0190174 0.0119625 0.0154227 0.0130652 0.0171291 0.0154227 0.0190174 0.0171291 0.020865 0.0130652 0.0171291 0.0133329 0.0175868 0.0171291 0.020865 0.0175868 0.0212011 0.0190174 0.0218013 0.020865 0.0236054 0.0218013 0.0236118 0.0236054 0.025369 0.020865 0.0236054 0.0212011 0.0238491 0.0236054 0.025369 0.0238491 0.0255269 0.0128455 0.0134051 0.0151735 0.0157316 0.0134051 0.0136989 0.0157316 0.0160029 0.0151735 0.0157316 0.0178967 0.0182799 0.0157316 0.0160029 0.0182799 0.0183934 0.0178967 0.0182799 0.0210572 0.0209306 0.0182799 0.0183934 0.0209306 0.0206777 0.0210572 0.0209306 0.0242963 0.0233473 0.0209306 0.0206777 0.0233473 0.0225069 0.0236118 0.0244372 0.025369 0.0261691 0.0244372 0.0242963 0.0261691 0.026015 0.025369 0.0261691 0.0255269 0.0262401 0.0261691 0.026015 0.0262401 0.025998 0.0183934 0.018205 0.0206777 0.0202267 0.018205 0.0176664 0.0202267 0.0194817 0.0206777 0.0202267 0.0225069 0.0216507 0.0202267 0.0194817 0.0216507 0.0205441 0.0205441 0.0195958 0.0210327 0.0202609 0.0195958 0.0188725 0.0202609 0.0198069 0.0210327 0.0202609 0.0208117 0.0203006 0.0202609 0.0198069 0.0203006 0.0201344 0.0087795 0.00821156 0.0108434 0.0104418 0.00821156 0.00767736 0.0104418 0.0100368 0.0108434 0.0104418 0.0132309 0.0131547 0.0104418 0.0100368 0.0131547 0.0130579 0.0138911 0.0134301 0.0159083 0.0157105 0.0134301 0.0132309 0.0157105 0.0159251 0.0159083 0.0157105 0.018087 0.0180839 0.0157105 0.0159251 0.0180839 0.0187571 0.0188725 0.018371 0.0198069 0.0196542 0.018371 0.018087 0.0196542 0.0198029 0.0198069 0.0196542 0.0201344 0.0203006 0.0196542 0.0198029 0.0203006 0.0208117 0.0132309 0.0131547 0.0159251 0.0163634 0.0131547 0.0130579 0.0163634 0.0168692 0.0159251 0.0163634 0.0187571 0.019846 0.0163634 0.0168692 0.019846 0.0211693 0.0211693 0.0217014 0.0243331 0.0247179 0.0217014 0.0212502 0.0247179 0.0241295 0.0243331 0.0247179 0.025998 0.0262401 0.0247179 0.0241295 0.0262401 0.0255269 0.00538484 0.00468129 0.00741484 0.00641334 0.00468129 0.0038902 0.00641334 0.00527791 0.00741484 0.00641334 0.0100796 0.00860185 0.00641334 0.00527791 0.00860185 0.0069626 0.0100796 0.00860185 0.0134896 0.0112275 0.00860185 0.0069626 0.0112275 0.00891196 0.0134896 0.0112275 0.0173332 0.0140438 0.0112275 0.00891196 0.0140438 0.0108945 0.0212502 0.0197905 0.0241295 0.0225597 0.0197905 0.0173332 0.0225597 0.0200045 0.0241295 0.0225597 0.0255269 0.0238491 0.0225597 0.0200045 0.0238491 0.0212011 0.0212011 0.0238491 0.0200045 0.0225597 0.0238491 0.0255269 0.0225597 0.0241295 0.0200045 0.0225597 0.0173332 0.0197905 0.0225597 0.0241295 0.0197905 0.0212502 0.0108945 0.0140438 0.00891196 0.0112275 0.0140438 0.0173332 0.0112275 0.0134896 0.00891196 0.0112275 0.0069626 0.00860185 0.0112275 0.0134896 0.00860185 0.0100796 0.0069626 0.00860185 0.00527791 0.00641334 0.00860185 0.0100796 0.00641334 0.00741484 0.00527791 0.00641334 0.0038902 0.00468129 0.00641334 0.00741484 0.00468129 0.00538484 0.0255269 0.0262401 0.0241295 0.0247179 0.0262401 0.025998 0.0247179 0.0243331 0.0241295 0.0247179 0.0212502 0.0217014 0.0247179 0.0243331 0.0217014 0.0211693 0.0211693 0.019846 0.0168692 0.0163634 0.019846 0.0187571 0.0163634 0.0159251 0.0168692 0.0163634 0.0130579 0.0131547 0.0163634 0.0159251 0.0131547 0.0132309 0.0208117 0.0203006 0.0198029 0.0196542 0.0203006 0.0201344 0.0196542 0.0198069 0.0198029 0.0196542 0.018087 0.018371 0.0196542 0.0198069 0.018371 0.0188725 0.0187571 0.0180839 0.0159251 0.0157105 0.0180839 0.018087 0.0157105 0.0159083 0.0159251 0.0157105 0.0132309 0.0134301 0.0157105 0.0159083 0.0134301 0.0138911 0.0130579 0.0131547 0.0100368 0.0104418 0.0131547 0.0132309 0.0104418 0.0108434 0.0100368 0.0104418 0.00767736 0.00821156 0.0104418 0.0108434 0.00821156 0.0087795 0.0201344 0.0203006 0.0198069 0.0202609 0.0203006 0.0208117 0.0202609 0.0210327 0.0198069 0.0202609 0.0188725 0.0195958 0.0202609 0.0210327 0.0195958 0.0205441 0.0205441 0.0216507 0.0194817 0.0202267 0.0216507 0.0225069 0.0202267 0.0206777 0.0194817 0.0202267 0.0176664 0.018205 0.0202267 0.0206777 0.018205 0.0183934 0.025998 0.0262401 0.026015 0.0261691 0.0262401 0.0255269 0.0261691 0.025369 0.026015 0.0261691 0.0242963 0.0244372 0.0261691 0.025369 0.0244372 0.0236118 0.0225069 0.0233473 0.0206777 0.0209306 0.0233473 0.0242963 0.0209306 0.0210572 0.0206777 0.0209306 0.0183934 0.0182799 0.0209306 0.0210572 0.0182799 0.0178967 0.0183934 0.0182799 0.0160029 0.0157316 0.0182799 0.0178967 0.0157316 0.0151735 0.0160029 0.0157316 0.0136989 0.0134051 0.0157316 0.0151735 0.0134051 0.0128455 0.0255269 0.0238491 0.025369 0.0236054 0.0238491 0.0212011 0.0236054 0.020865 0.025369 0.0236054 0.0236118 0.0218013 0.0236054 0.020865 0.0218013 0.0190174 0.0212011 0.0175868 0.020865 0.0171291 0.0175868 0.0133329 0.0171291 0.0130652 0.020865 0.0171291 0.0190174 0.0154227 0.0171291 0.0130652 0.0154227 0.0119625 0.0190174 0.0154227 0.0158708 0.013181 0.0154227 0.0119625 0.013181 0.0104484 0.0158708 0.013181 0.0130142 0.0110288 0.013181 0.0104484 0.0110288 0.00888619 0.0130142 0.0110288 0.0107487 0.00919604 0.0110288 0.00888619 0.00919604 0.00749972 0.0107487 0.00919604 0.00896844 0.00770183 0.00919604 0.00749972 0.00770183 0.00632164 0.00557481 0.00867844 0.00593023 0.00933971 0.00867844 0.0119625 0.00933971 0.0130652 0.00593023 0.00933971 0.00598602 0.00946258 0.00933971 0.0130652 0.00946258 0.0133329 0.0108945 0.00789446 0.0125227 0.00893952 0.00789446 0.00506325 0.00893952 0.00566916 0.0125227 0.00893952 0.0133329 0.00946258 0.00893952 0.00566916 0.00946258 0.00598602 0.00598602 0.00946258 0.00566916 0.00893952 0.00946258 0.0133329 0.00893952 0.0125227 0.00566916 0.00893952 0.00506325 0.00789446 0.00893952 0.0125227 0.00789446 0.0108945 0.0133329 0.00946258 0.0130652 0.00933971 0.00946258 0.00598602 0.00933971 0.00593023 0.0130652 0.00933971 0.0119625 0.00867844 0.00933971 0.00593023 0.00867844 0.00557481 0.0158708 0.0171939 0.0174949 0.0190308 0.0171939 0.0184207 0.0190308 0.0203156 0.0174949 0.0190308 0.0190174 0.0205264 0.0190308 0.0203156 0.0205264 0.0218013 0.021017 0.0210863 0.0229452 0.022976 0.0210863 0.0210572 0.022976 0.0227536 0.0229452 0.022976 0.0244372 0.0244825 0.022976 0.0227536 0.0244825 0.0242963 0.0242963 0.0238385 0.0253711 0.0249449 0.0238385 0.0233473 0.0249449 0.0242986 0.0253711 0.0249449 0.026015 0.0255765 0.0249449 0.0242986 0.0255765 0.0248889 0.0194817 0.0189898 0.0201151 0.0195728 0.0189898 0.0184552 0.0195728 0.0190751 0.0201151 0.0195728 0.0205441 0.0200425 0.0195728 0.0190751 0.0200425 0.0195958 0.0216507 0.0211238 0.0220216 0.0214153 0.0211238 0.0205441 0.0214153 0.020867 0.0220216 0.0214153 0.0221445 0.0215444 0.0214153 0.020867 0.0215444 0.0210327 0.0165812 0.0161976 0.0175275 0.0172433 0.0161976 0.0159083 0.0172433 0.016997 0.0175275 0.0172433 0.018371 0.0181998 0.0172433 0.016997 0.0181998 0.018087 0.018087 0.0180062 0.0190219 0.0190873 0.0180062 0.0180839 0.0190873 0.0192376 0.0190219 0.0190873 0.0198029 0.019993 0.0190873 0.0192376 0.019993 0.0202776 0.0202776 0.0207123 0.0211094 0.0216413 0.0207123 0.0213319 0.0216413 0.0223323 0.0211094 0.0216413 0.0217077 0.0223093 0.0216413 0.0223323 0.0223093 0.0230389 0.0168692 0.0171186 0.0190443 0.0194814 0.0171186 0.0172773 0.0194814 0.0196682 0.0190443 0.0194814 0.0211693 0.0215519 0.0194814 0.0196682 0.0215519 0.0217014 0.019846 0.0205187 0.021531 0.0223344 0.0205187 0.0211693 0.0223344 0.0229249 0.021531 0.0223344 0.0229702 0.0237738 0.0223344 0.0229249 0.0237738 0.0243331 0.0155982 0.0145935 0.0178763 0.0167884 0.0145935 0.0134896 0.0167884 0.0154427 0.0178763 0.0167884 0.0197905 0.0186815 0.0167884 0.0154427 0.0186815 0.0173332 0.0173332 0.0157071 0.0188445 0.0172199 0.0157071 0.0140438 0.0172199 0.015369 0.0188445 0.0172199 0.0200045 0.0183507 0.0172199 0.015369 0.0183507 0.0164405 0.0164405 0.0183507 0.015369 0.0172199 0.0183507 0.0200045 0.0172199 0.0188445 0.015369 0.0172199 0.0140438 0.0157071 0.0172199 0.0188445 0.0157071 0.0173332 0.0173332 0.0186815 0.0154427 0.0167884 0.0186815 0.0197905 0.0167884 0.0178763 0.0154427 0.0167884 0.0134896 0.0145935 0.0167884 0.0178763 0.0145935 0.0155982 0.0243331 0.0237738 0.0229249 0.0223344 0.0237738 0.0229702 0.0223344 0.021531 0.0229249 0.0223344 0.0211693 0.0205187 0.0223344 0.021531 0.0205187 0.019846 0.0217014 0.0215519 0.0196682 0.0194814 0.0215519 0.0211693 0.0194814 0.0190443 0.0196682 0.0194814 0.0172773 0.0171186 0.0194814 0.0190443 0.0171186 0.0168692 0.0230389 0.0223093 0.0223323 0.0216413 0.0223093 0.0217077 0.0216413 0.0211094 0.0223323 0.0216413 0.0213319 0.0207123 0.0216413 0.0211094 0.0207123 0.0202776 0.0202776 0.019993 0.0192376 0.0190873 0.019993 0.0198029 0.0190873 0.0190219 0.0192376 0.0190873 0.0180839 0.0180062 0.0190873 0.0190219 0.0180062 0.018087 0.018087 0.0181998 0.016997 0.0172433 0.0181998 0.018371 0.0172433 0.0175275 0.016997 0.0172433 0.0159083 0.0161976 0.0172433 0.0175275 0.0161976 0.0165812 0.0210327 0.0215444 0.020867 0.0214153 0.0215444 0.0221445 0.0214153 0.0220216 0.020867 0.0214153 0.0205441 0.0211238 0.0214153 0.0220216 0.0211238 0.0216507 0.0195958 0.0200425 0.0190751 0.0195728 0.0200425 0.0205441 0.0195728 0.0201151 0.0190751 0.0195728 0.0184552 0.0189898 0.0195728 0.0201151 0.0189898 0.0194817 0.0248889 0.0255765 0.0242986 0.0249449 0.0255765 0.026015 0.0249449 0.0253711 0.0242986 0.0249449 0.0233473 0.0238385 0.0249449 0.0253711 0.0238385 0.0242963 0.0242963 0.0244825 0.0227536 0.022976 0.0244825 0.0244372 0.022976 0.0229452 0.0227536 0.022976 0.0210572 0.0210863 0.022976 0.0229452 0.0210863 0.021017 0.0218013 0.0205264 0.0203156 0.0190308 0.0205264 0.0190174 0.0190308 0.0174949 0.0203156 0.0190308 0.0184207 0.0171939 0.0190308 0.0174949 0.0171939 0.0158708 
SCALARS y_displacement double 1
LOOKUP_TABLE default