# vtk DataFile Version 3.0
#This file was generated by the deal.II library on 2018/12/12 at 9:49:50
ASCII
DATASET UNSTRUCTURED_GRID

POINTS 13360 double
-0.75 -1 0
-0.625 -1 0
-0.75 -0.875 0
-0.625 -0.875 0
-0.625 -1 0
-0.5 -1 0
-0.625 -0.875 0
-0.5 -0.875 0
-0.75 -0.875 0
-0.625 -0.875 0
-0.75 -0.75 0
-0.625 -0.75 0
-0.625 -0.875 0
-0.5 -0.875 0
-0.625 -0.75 0
-0.5 -0.75 0
-1 -0.75 0
-0.875 -0.75 0
-1 -0.625 0
-0.875 -0.625 0
-0.875 -0.75 0
-0.75 -0.75 0
-0.875 -0.625 0
-0.75 -0.625 0
-1 -0.625 0
-0.875 -0.625 0
-1 -0.5 0
-0.875 -0.5 0
-0.75 -0.75 0
-0.625 -0.75 0
-0.75 -0.625 0
-0.625 -0.625 0
-0.5 -1 0
-0.375 -1 0
-0.5 -0.875 0
-0.375 -0.875 0
-0.375 -1 0
-0.25 -1 0
-0.375 -0.875 0
-0.25 -0.875 0
-0.5 -0.875 0
-0.375 -0.875 0
-0.5 -0.75 0
-0.375 -0.75 0
-0.375 -0.875 0
-0.25 -0.875 0
-0.375 -0.75 0
-0.25 -0.75 0
-0.25 -1 0
-0.125 -1 0
-0.25 -0.875 0
-0.125 -0.875 0
-0.125 -1 0
0 -1 0
-0.125 -0.875 0
0 -0.875 0
-0.25 -0.875 0
-0.125 -0.875 0
-0.25 -0.75 0
-0.125 -0.75 0
-0.125 -0.875 0
0 -0.875 0
-0.125 -0.75 0
0 -0.75 0
0 -1 0
0.125 -1 0
0 -0.875 0
0.125 -0.875 0
0.125 -1 0
0.25 -1 0
0.125 -0.875 0
0.25 -0.875 0
0 -0.875 0
0.125 -0.875 0
0 -0.75 0
0.125 -0.75 0
0.125 -0.875 0
0.25 -0.875 0
0.125 -0.75 0
0.25 -0.75 0
0.25 -1 0
0.375 -1 0
0.25 -0.875 0
0.375 -0.875 0
0.375 -1 0
0.5 -1 0
0.375 -0.875 0
0.5 -0.875 0
0.5 -1 0
0.625 -1 0
0.5 -0.875 0
0.625 -0.875 0
0.625 -1 0
0.75 -1 0
0.625 -0.875 0
0.75 -0.875 0
0.625 -0.875 0
0.75 -0.875 0
0.625 -0.75 0
0.75 -0.75 0
0.75 -0.75 0
0.875 -0.75 0
0.75 -0.625 0
0.875 -0.625 0
0.875 -0.75 0
1 -0.75 0
0.875 -0.625 0
1 -0.625 0
0.875 -0.625 0
1 -0.625 0
0.875 -0.5 0
1 -0.5 0
-1 0.5 0
-0.875 0.5 0
-1 0.625 0
-0.875 0.625 0
-1 0.625 0
-0.875 0.625 0
-1 0.75 0
-0.875 0.75 0
-0.875 0.625 0
-0.75 0.625 0
-0.875 0.75 0
-0.75 0.75 0
-0.75 0.75 0
-0.625 0.75 0
-0.75 0.875 0
-0.625 0.875 0
-0.75 0.875 0
-0.625 0.875 0
-0.75 1 0
-0.625 1 0
-0.625 0.875 0
-0.5 0.875 0
-0.625 1 0
-0.5 1 0
-0.5 0.875 0
-0.375 0.875 0
-0.5 1 0
-0.375 1 0
-0.375 0.875 0
-0.25 0.875 0
-0.375 1 0
-0.25 1 0
-0.25 0.75 0
-0.125 0.75 0
-0.25 0.875 0
-0.125 0.875 0
-0.125 0.75 0
0 0.75 0
-0.125 0.875 0
0 0.875 0
-0.25 0.875 0
-0.125 0.875 0
-0.25 1 0
-0.125 1 0
-0.125 0.875 0
0 0.875 0
-0.125 1 0
0 1 0
0 0.75 0
0.125 0.75 0
0 0.875 0
0.125 0.875 0
0.125 0.75 0
0.25 0.75 0
0.125 0.875 0
0.25 0.875 0
0 0.875 0
0.125 0.875 0
0 1 0
0.125 1 0
0.125 0.875 0
0.25 0.875 0
0.125 1 0
0.25 1 0
0.25 0.75 0
0.375 0.75 0
0.25 0.875 0
0.375 0.875 0
0.375 0.75 0
0.5 0.75 0
0.375 0.875 0
0.5 0.875 0
0.25 0.875 0
0.375 0.875 0
0.25 1 0
0.375 1 0
0.375 0.875 0
0.5 0.875 0
0.375 1 0
0.5 1 0
0.625 0.625 0
0.75 0.625 0
0.625 0.75 0
0.75 0.75 0
0.875 0.5 0
1 0.5 0
0.875 0.625 0
1 0.625 0
0.75 0.625 0
0.875 0.625 0
0.75 0.75 0
0.875 0.75 0
0.875 0.625 0
1 0.625 0
0.875 0.75 0
1 0.75 0
0.5 0.75 0
0.625 0.75 0
0.5 0.875 0
0.625 0.875 0
0.625 0.75 0
0.75 0.75 0
0.625 0.875 0
0.75 0.875 0
0.5 0.875 0
0.625 0.875 0
0.5 1 0
0.625 1 0
0.625 0.875 0
0.75 0.875 0
0.625 1 0
0.75 1 0
0.75 -1 0
0.875 -1 0
0.75 -0.875 0
0.875 -0.875 0
0.75 -0.875 0
0.875 -0.875 0
0.75 -0.75 0
0.875 -0.75 0
-0.875 0.75 0
-0.75 0.75 0
-0.875 0.875 0
-0.75 0.875 0
-0.875 0.875 0
-0.75 0.875 0
-0.875 1 0
-0.75 1 0
-0.625 -0.375 0
-0.5625 -0.375 0
-0.625 -0.3125 0
-0.5625 -0.3125 0
-0.5625 -0.375 0
-0.5 -0.375 0
-0.5625 -0.3125 0
-0.5 -0.3125 0
-0.5 -0.375 0
-0.4375 -0.375 0
-0.5 -0.3125 0
-0.4375 -0.3125 0
-0.4375 -0.375 0
-0.375 -0.375 0
-0.4375 -0.3125 0
-0.375 -0.3125 0
0.375 -0.375 0
0.4375 -0.375 0
0.375 -0.3125 0
0.4375 -0.3125 0
0.5625 -0.375 0
0.625 -0.375 0
0.5625 -0.3125 0
0.625 -0.3125 0
-0.625 0.3125 0
-0.5625 0.3125 0
-0.625 0.375 0
-0.5625 0.375 0
-0.4375 0.3125 0
-0.375 0.3125 0
-0.4375 0.375 0
-0.375 0.375 0
0.375 0.3125 0
0.4375 0.3125 0
0.375 0.375 0
0.4375 0.375 0
0.4375 0.3125 0
0.5 0.3125 0
0.4375 0.375 0
0.5 0.375 0
0.5 0.3125 0
0.5625 0.3125 0
0.5 0.375 0
0.5625 0.375 0
0.5625 0.3125 0
0.625 0.3125 0
0.5625 0.375 0
0.625 0.375 0
-0.75 -0.375 0
-0.6875 -0.375 0
-0.75 -0.3125 0
-0.6875 -0.3125 0
-0.6875 -0.375 0
-0.625 -0.375 0
-0.6875 -0.3125 0
-0.625 -0.3125 0
-0.75 -0.3125 0
-0.6875 -0.3125 0
-0.75 -0.25 0
-0.6875 -0.25 0
-0.5625 -0.125 0
-0.5 -0.125 0
-0.5625 -0.0625 0
-0.5 -0.0625 0
-0.625 -0.0625 0
-0.5625 -0.0625 0
-0.625 0 0
-0.5625 0 0
-0.5625 -0.0625 0
-0.5 -0.0625 0
-0.5625 0 0
-0.5 0 0
-0.375 -0.375 0
-0.3125 -0.375 0
-0.375 -0.3125 0
-0.3125 -0.3125 0
-0.3125 -0.375 0
-0.25 -0.375 0
-0.3125 -0.3125 0
-0.25 -0.3125 0
-0.5 -0.125 0
-0.4375 -0.125 0
-0.5 -0.0625 0
-0.4375 -0.0625 0
-0.5 -0.0625 0
-0.4375 -0.0625 0
-0.5 0 0
-0.4375 0 0
-0.4375 -0.0625 0
-0.375 -0.0625 0
-0.4375 0 0
-0.375 0 0
-0.0625 -0.125 0
0 -0.125 0
-0.0625 -0.0625 0
0 -0.0625 0
-0.125 -0.0625 0
-0.0625 -0.0625 0
-0.125 0 0
-0.0625 0 0
-0.0625 -0.0625 0
0 -0.0625 0
-0.0625 0 0
0 0 0
0.25 -0.375 0
0.3125 -0.375 0
0.25 -0.3125 0
0.3125 -0.3125 0
0.3125 -0.375 0
0.375 -0.375 0
0.3125 -0.3125 0
0.375 -0.3125 0
0 -0.125 0
0.0625 -0.125 0
0 -0.0625 0
0.0625 -0.0625 0
0 -0.0625 0
0.0625 -0.0625 0
0 0 0
0.0625 0 0
0.0625 -0.0625 0
0.125 -0.0625 0
0.0625 0 0
0.125 0 0
0.4375 -0.125 0
0.5 -0.125 0
0.4375 -0.0625 0
0.5 -0.0625 0
0.375 -0.0625 0
0.4375 -0.0625 0
0.375 0 0
0.4375 0 0
0.4375 -0.0625 0
0.5 -0.0625 0
0.4375 0 0
0.5 0 0
0.625 -0.375 0
0.6875 -0.375 0
0.625 -0.3125 0
0.6875 -0.3125 0
0.6875 -0.375 0
0.75 -0.375 0
0.6875 -0.3125 0
0.75 -0.3125 0
0.6875 -0.3125 0
0.75 -0.3125 0
0.6875 -0.25 0
0.75 -0.25 0
0.5 -0.125 0
0.5625 -0.125 0
0.5 -0.0625 0
0.5625 -0.0625 0
0.5 -0.0625 0
0.5625 -0.0625 0
0.5 0 0
0.5625 0 0
0.5625 -0.0625 0
0.625 -0.0625 0
0.5625 0 0
0.625 0 0
-0.625 0 0
-0.5625 0 0
-0.625 0.0625 0
-0.5625 0.0625 0
-0.5625 0 0
-0.5 0 0
-0.5625 0.0625 0
-0.5 0.0625 0
-0.5625 0.0625 0
-0.5 0.0625 0
-0.5625 0.125 0
-0.5 0.125 0
-0.75 0.25 0
-0.6875 0.25 0
-0.75 0.3125 0
-0.6875 0.3125 0
-0.75 0.3125 0
-0.6875 0.3125 0
-0.75 0.375 0
-0.6875 0.375 0
-0.6875 0.3125 0
-0.625 0.3125 0
-0.6875 0.375 0
-0.625 0.375 0
-0.5 0 0
-0.4375 0 0
-0.5 0.0625 0
-0.4375 0.0625 0
-0.4375 0 0
-0.375 0 0
-0.4375 0.0625 0
-0.375 0.0625 0
-0.5 0.0625 0
-0.4375 0.0625 0
-0.5 0.125 0
-0.4375 0.125 0
-0.125 0 0
-0.0625 0 0
-0.125 0.0625 0
-0.0625 0.0625 0
-0.0625 0 0
0 0 0
-0.0625 0.0625 0
0 0.0625 0
-0.0625 0.0625 0
0 0.0625 0
-0.0625 0.125 0
0 0.125 0
-0.375 0.3125 0
-0.3125 0.3125 0
-0.375 0.375 0
-0.3125 0.375 0
-0.3125 0.3125 0
-0.25 0.3125 0
-0.3125 0.375 0
-0.25 0.375 0
0 0 0
0.0625 0 0
0 0.0625 0
0.0625 0.0625 0
0.0625 0 0
0.125 0 0
0.0625 0.0625 0
0.125 0.0625 0
0 0.0625 0
0.0625 0.0625 0
0 0.125 0
0.0625 0.125 0
0.375 0 0
0.4375 0 0
0.375 0.0625 0
0.4375 0.0625 0
0.4375 0 0
0.5 0 0
0.4375 0.0625 0
0.5 0.0625 0
0.4375 0.0625 0
0.5 0.0625 0
0.4375 0.125 0
0.5 0.125 0
0.25 0.3125 0
0.3125 0.3125 0
0.25 0.375 0
0.3125 0.375 0
0.3125 0.3125 0
0.375 0.3125 0
0.3125 0.375 0
0.375 0.375 0
0.5 0 0
0.5625 0 0
0.5 0.0625 0
0.5625 0.0625 0
0.5625 0 0
0.625 0 0
0.5625 0.0625 0
0.625 0.0625 0
0.5 0.0625 0
0.5625 0.0625 0
0.5 0.125 0
0.5625 0.125 0
0.6875 0.25 0
0.75 0.25 0
0.6875 0.3125 0
0.75 0.3125 0
0.625 0.3125 0
0.6875 0.3125 0
0.625 0.375 0
0.6875 0.375 0
0.6875 0.3125 0
0.75 0.3125 0
0.6875 0.375 0
0.75 0.375 0
-0.875 -0.125 0
-0.8125 -0.125 0
-0.875 -0.0625 0
-0.8125 -0.0625 0
-0.875 -0.0625 0
-0.8125 -0.0625 0
-0.875 0 0
-0.8125 0 0
0.8125 -0.125 0
0.875 -0.125 0
0.8125 -0.0625 0
0.875 -0.0625 0
0.8125 -0.0625 0
0.875 -0.0625 0
0.8125 0 0
0.875 0 0
-0.875 0 0
-0.8125 0 0
-0.875 0.0625 0
-0.8125 0.0625 0
-0.875 0.0625 0
-0.8125 0.0625 0
-0.875 0.125 0
-0.8125 0.125 0
0.8125 0 0
0.875 0 0
0.8125 0.0625 0
0.875 0.0625 0
0.8125 0.0625 0
0.875 0.0625 0
0.8125 0.125 0
0.875 0.125 0
0.625 -0.5 0
0.6875 -0.5 0
0.625 -0.4375 0
0.6875 -0.4375 0
0.6875 -0.5 0
0.75 -0.5 0
0.6875 -0.4375 0
0.75 -0.4375 0
0.625 -0.4375 0
0.6875 -0.4375 0
0.625 -0.375 0
0.6875 -0.375 0
0.6875 -0.4375 0
0.75 -0.4375 0
0.6875 -0.375 0
0.75 -0.375 0
-0.75 0.375 0
-0.6875 0.375 0
-0.75 0.4375 0
-0.6875 0.4375 0
-0.6875 0.375 0
-0.625 0.375 0
-0.6875 0.4375 0
-0.625 0.4375 0
-0.75 0.4375 0
-0.6875 0.4375 0
-0.75 0.5 0
-0.6875 0.5 0
-0.6875 0.4375 0
-0.625 0.4375 0
-0.6875 0.5 0
-0.625 0.5 0
-0.875 -0.25 0
-0.8125 -0.25 0
-0.875 -0.1875 0
-0.8125 -0.1875 0
-0.8125 -0.25 0
-0.75 -0.25 0
-0.8125 -0.1875 0
-0.75 -0.1875 0
-0.875 -0.1875 0
-0.8125 -0.1875 0
-0.875 -0.125 0
-0.8125 -0.125 0
-0.25 -0.375 0
-0.1875 -0.375 0
-0.25 -0.3125 0
-0.1875 -0.3125 0
-0.1875 -0.375 0
-0.125 -0.375 0
-0.1875 -0.3125 0
-0.125 -0.3125 0
0 -0.375 0
0.0625 -0.375 0
0 -0.3125 0
0.0625 -0.3125 0
0.0625 -0.375 0
0.125 -0.375 0
0.0625 -0.3125 0
0.125 -0.3125 0
0.125 -0.375 0
0.1875 -0.375 0
0.125 -0.3125 0
0.1875 -0.3125 0
0.1875 -0.375 0
0.25 -0.375 0
0.1875 -0.3125 0
0.25 -0.3125 0
0.1875 -0.3125 0
0.25 -0.3125 0
0.1875 -0.25 0
0.25 -0.25 0
0.75 -0.25 0
0.8125 -0.25 0
0.75 -0.1875 0
0.8125 -0.1875 0
0.8125 -0.25 0
0.875 -0.25 0
0.8125 -0.1875 0
0.875 -0.1875 0
0.8125 -0.1875 0
0.875 -0.1875 0
0.8125 -0.125 0
0.875 -0.125 0
-0.875 0.125 0
-0.8125 0.125 0
-0.875 0.1875 0
-0.8125 0.1875 0
-0.875 0.1875 0
-0.8125 0.1875 0
-0.875 0.25 0
-0.8125 0.25 0
-0.8125 0.1875 0
-0.75 0.1875 0
-0.8125 0.25 0
-0.75 0.25 0
-0.25 0.25 0
-0.1875 0.25 0
-0.25 0.3125 0
-0.1875 0.3125 0
-0.25 0.3125 0
-0.1875 0.3125 0
-0.25 0.375 0
-0.1875 0.375 0
-0.1875 0.3125 0
-0.125 0.3125 0
-0.1875 0.375 0
-0.125 0.375 0
-0.125 0.3125 0
-0.0625 0.3125 0
-0.125 0.375 0
-0.0625 0.375 0
-0.0625 0.3125 0
0 0.3125 0
-0.0625 0.375 0
0 0.375 0
0.125 0.3125 0
0.1875 0.3125 0
0.125 0.375 0
0.1875 0.375 0
0.1875 0.3125 0
0.25 0.3125 0
0.1875 0.375 0
0.25 0.375 0
0.8125 0.125 0
0.875 0.125 0
0.8125 0.1875 0
0.875 0.1875 0
0.75 0.1875 0
0.8125 0.1875 0
0.75 0.25 0
0.8125 0.25 0
0.8125 0.1875 0
0.875 0.1875 0
0.8125 0.25 0
0.875 0.25 0
-0.5 -0.625 0
-0.4375 -0.625 0
-0.5 -0.5625 0
-0.4375 -0.5625 0
-0.4375 -0.625 0
-0.375 -0.625 0
-0.4375 -0.5625 0
-0.375 -0.5625 0
0.125 -0.625 0
0.1875 -0.625 0
0.125 -0.5625 0
0.1875 -0.5625 0
0.1875 -0.625 0
0.25 -0.625 0
0.1875 -0.5625 0
[...]
POINT_DATA 13360
SCALARS x_displacement double 1
LOOKUP_TABLE default
0 0 0.00127046 0.00156341 0 0 0.00156341 0.00176656 0.00127046 0.00156341 0.00227039 0.00298026 0.00156341 0.00176656 0.00298026 0.00351311 0 0.00131718 0 0.00180829 0.00131718 0.00227039 0.00180829 0.00327806 0 0.00180829 0 0.0024154 0.00227039 0.00298026 0.00327806 0.00447957 0 0 0.00176656 0.00187692 0 0 0.00187692 0.00185348 0.00176656 0.00187692 0.00351311 0.00385381 0.00187692 0.00185348 0.00385381 0.00392184 0 0 0.00185348 0.00166094 0 0 0.00166094 0.00130937 0.00185348 0.00166094 0.00392184 0.00364772 0.00166094 0.00130937 0.00364772 0.00305263 0 0 0.00130937 0.00086508 0 0 0.00086508 0.000426955 0.00130937 0.00086508 0.00305263 0.00226662 0.00086508 0.000426955 0.00226662 0.00147132 0 0 0.000426955 8.71341e-05 0 0 8.71341e-05 -9.86325e-05 0 0 -9.86325e-05 -0.000127599 0 0 -0.000127599 -5.075e-05 -0.000127599 -5.075e-05 0.000230395 0.000199993 0.000199993 0.000177842 0.000809286 0.000503487 0.000177842 0 0.000503487 0 0.000503487 0 0.00108721 0 0 0.00108721 0 0.000503487 0 0.000503487 0 0.000177842 0.000503487 0.000809286 0.000177842 0.000199993 0.000199993 0.000230395 -5.075e-05 -0.000127599 -5.075e-05 -0.000127599 0 0 -0.000127599 -9.86325e-05 0 0 -9.86325e-05 8.71341e-05 0 0 8.71341e-05 0.000426955 0 0 0.00147132 0.00226662 0.000426955 0.00086508 0.00226662 0.00305263 0.00086508 0.00130937 0.000426955 0.00086508 0 0 0.00086508 0.00130937 0 0 0.00305263 0.00364772 0.00130937 0.00166094 0.00364772 0.00392184 0.00166094 0.00185348 0.00130937 0.00166094 0 0 0.00166094 0.00185348 0 0 0.00392184 0.00385381 0.00185348 0.00187692 0.00385381 0.00351311 0.00187692 0.00176656 0.00185348 0.00187692 0 0 0.00187692 0.00176656 0 0 0.00447957 0.00327806 0.00298026 0.00227039 0.0024154 0 0.00180829 0 0.00327806 0.00180829 0.00227039 0.00131718 0.00180829 0 0.00131718 0 0.00351311 0.00298026 0.00176656 0.00156341 0.00298026 0.00227039 0.00156341 0.00127046 0.00176656 0.00156341 0 0 0.00156341 0.00127046 0 0 0 0 -5.075e-05 3.51386e-05 -5.075e-05 3.51386e-05 0.000199993 0.000177842 0.000177842 0.000199993 3.51386e-05 -5.075e-05 3.51386e-05 -5.075e-05 0 0 0.00890979 0.0100535 0.0106743 0.012051 0.0100535 0.0110873 0.012051 0.0132538 0.0110873 0.0120009 0.0132538 0.0142679 0.0120009 0.0127612 0.0142679 0.0150715 0.00761054 0.00707836 0.00995014 0.009478 0.00595956 0.00533694 0.00819565 0.0073504 0.0073504 0.00819565 0.00533694 0.00595956 0.009478 0.00995014 0.00707836 0.00761054 0.0150715 0.0142679 0.0127612 0.0120009 0.0142679 0.0132538 0.0120009 0.0110873 0.0132538 0.012051 0.0110873 0.0100535 0.012051 0.0106743 0.0100535 0.00890979 0.00628209 0.00765291 0.00745102 0.00913487 0.00765291 0.00890979 0.00913487 0.0106743 0.00745102 0.00913487 0.00884003 0.0109584 0.0216896 0.0234814 0.0234851 0.0252408 0.0207529 0.0234851 0.0210602 0.0237207 0.0234851 0.0252408 0.0237207 0.0253953 0.0127612 0.0133166 0.0150715 0.0156303 0.0133166 0.0136115 0.0156303 0.0159008 0.0234814 0.024308 0.0252408 0.0260275 0.0252408 0.0260275 0.0253953 0.0260913 0.0260275 0.0258541 0.0260913 0.0258171 0.0194726 0.0187384 0.0201245 0.0196632 0.0208913 0.0201245 0.0206553 0.0201509 0.0201245 0.0196632 0.0201509 0.0199869 0.00871022 0.00814509 0.0107566 0.0103553 0.00814509 0.00761054 0.0103553 0.00995014 0.0187384 0.0182243 0.0196632 0.0195006 0.0196632 0.0195006 0.0199869 0.0201509 0.0195006 0.0196444 0.0201509 0.0206553 0.0215817 0.0211282 0.0245823 0.0240054 0.0241795 0.0245823 0.0258171 0.0260913 0.0245823 0.0240054 0.0260913 0.0253953 0.00533694 0.00464152 0.0073504 0.00636066 0.00464152 0.00385847 0.00636066 0.00523631 0.00636066 0.00523631 0.00853963 0.00692333 0.0211282 0.0196859 0.0240054 0.0224411 0.0240054 0.0224411 0.0253953 0.0237207 0.0224411 0.0198844 0.0237207 0.0210602 0.0210602 0.0237207 0.0198844 0.0224411 0.0237207 0.0253953 0.0224411 0.0240054 0.0224411 0.0240054 0.0196859 0.0211282 0.00692333 0.00853963 0.00523631 0.00636066 0.00523631 0.00636066 0.00385847 0.00464152 0.00636066 0.0073504 0.00464152 0.00533694 0.0253953 0.0260913 0.0240054 0.0245823 0.0260913 0.0258171 0.0245823 0.0241795 0.0240054 0.0245823 0.0211282 0.0215817 0.0206553 0.0201509 0.0196444 0.0195006 0.0201509 0.0199869 0.0195006 0.0196632 0.0195006 0.0196632 0.0182243 0.0187384 0.00995014 0.0103553 0.00761054 0.00814509 0.0103553 0.0107566 0.00814509 0.00871022 0.0199869 0.0201509 0.0196632 0.0201245 0.0201509 0.0206553 0.0201245 0.0208913 0.0196632 0.0201245 0.0187384 0.0194726 0.0258171 0.0260913 0.0258541 0.0260275 0.0260913 0.0253953 0.0260275 0.0252408 0.0260275 0.0252408 0.024308 0.0234814 0.0159008 0.0156303 0.0136115 0.0133166 0.0156303 0.0150715 0.0133166 0.0127612 0.0253953 0.0237207 0.0252408 0.0234851 0.0237207 0.0210602 0.0234851 0.0207529 0.0252408 0.0234851 0.0234814 0.0216896 0.0109584 0.00884003 0.00913487 0.00745102 0.0106743 0.00913487 0.00890979 0.00765291 0.00913487 0.00745102 0.00765291 0.00628209 0.00554059 0.00862669 0.00588982 0.00927452 0.00588982 0.00927452 0.00593303 0.009386 0.00784109 0.00502901 0.00887134 0.00562781 0.00887134 0.00562781 0.009386 0.00593303 0.00593303 0.009386 0.00562781 0.00887134 0.00562781 0.00887134 0.00502901 0.00784109 0.009386 0.00593303 0.00927452 0.00588982 0.00927452 0.00588982 0.00862669 0.00554059 0.0026455 0.00229752 0.00380797 0.00331346 0.00229752 0.00193316 0.00331346 0.00277244 0.00380797 0.00331346 0.00533694 0.00464152 0.00331346 0.00277244 0.00464152 0.00385847 0.00385847 0.00464152 0.00277244 0.00331346 0.00464152 0.00533694 0.00331346 0.00380797 0.00277244 0.00331346 0.00193316 0.00229752 0.00331346 0.00380797 0.00229752 0.0026455 0.00438267 0.00662812 0.00499727 0.00766809 0.00662812 0.00884003 0.00766809 0.0103921 0.00499727 0.00766809 0.00554059 0.00862669 0.0136115 0.0136021 0.0159008 0.0158402 0.0136021 0.0132732 0.0158402 0.015426 0.0118386 0.0109462 0.0137409 0.0127583 0.0109462 0.0100943 0.0127583 0.0119014 0.0100943 0.00934798 0.0119014 0.0112441 0.00934798 0.00871022 0.0112441 0.0107566 0.0112441 0.0107566 0.0133301 0.013132 0.00692333 0.00520774 0.00886051 0.00653893 0.00520774 0.00345043 0.00653893 0.00425948 0.00653893 0.00425948 0.00784109 0.00502901 0.00502901 0.00784109 0.00425948 0.00653893 0.00425948 0.00653893 0.00345043 0.00520774 0.00653893 0.00886051 0.00520774 0.00692333 0.013132 0.0133301 0.0107566 0.0112441 0.0107566 0.0112441 0.00871022 0.00934798 0.0112441 0.0119014 0.00934798 0.0100943 0.0119014 0.0127583 0.0100943 0.0109462 0.0127583 0.0137409 0.0109462 0.0118386 0.015426 0.0158402 0.0132732 0.0136021 0.0158402 0.0159008 0.0136021 0.0136115 0.00862669 0.00554059 0.00766809 0.00499727 0.0103921 0.00766809 0.00884003 0.00662812 0.00766809 0.00499727 0.00662812 0.00438267 0.00545587 0.0058488 0.00657861 0.00709131 0.0058488 0.00615807 0.00709131 0.00750757 0.00424621 0.00367043 0.00547086 0.00481765 0.00367043 0.00312073 0.00481765 0.00419758 0.00547086 0.00481765 0.00685795 0.00613984 0.00613984 0.00685795 0.00481765 0.00547086 0.00419758 0.00481765 0.00312073 0.00367043 0.00481765 0.00547086 0.00367043 0.00424621 0.00750757 0.00709131 0.00615807 0.0058488 0.00709131 0.00657861 0.0058488 0.00545587 0.00452436 0.00546347 0.00531932 0.00645166 0.00546347 0.00632923 0.00645166 0.00749487 0.00531932 0.00645166 0.00628209 0.00765291 0.00645166 0.00749487 0.00765291 0.00890979 0.00632923 0.007126 0.00749487 0.00845353 0.00749487 0.00845353 0.00890979 0.0100535 0.00845353 0.00933004 0.0100535 0.0110873 0.00785279 0.00849716 0.00933004 0.0101122 0.00849716 0.00903158 0.0101122 0.0107677 0.00933004 0.0101122 0.0110873 0.0120009 0.0101122 0.0107677 0.0120009 0.0127612 0.00903158 0.00941742 0.0107677 0.0112494 0.0107677 0.0112494 0.0127612 0.0133166 0.0112494 0.0115076 0.0133166 0.0136115 0.00546816 0.00485528 0.0069607 0.0063391 0.00485528 0.00430431 0.0063391 0.00576978 0.0069607 0.0063391 0.00871022 0.00814509 0.0063391 0.00576978 0.00814509 0.00761054 0.00430431 0.00381502 0.00576978 0.00524222 0.00576978 0.00524222 0.00761054 0.00707836 0.00524222 0.00474907 0.00707836 0.00653238 0.00338353 0.00299964 0.00474907 0.00427792 0.00474907 0.00427792 0.00653238 0.00595956 0.00427792 0.00380797 0.00595956 0.00533694 0.00533694 0.00595956 0.00380797 0.00427792 0.00595956 0.00653238 0.00427792 0.00474907 0.00427792 0.00474907 0.00299964 0.00338353 0.00653238 0.00707836 0.00474907 0.00524222 0.00707836 0.00761054 0.00524222 0.00576978 0.00524222 0.00576978 0.00381502 0.00430431 0.00761054 0.00814509 0.00576978 0.0063391 0.00814509 0.00871022 0.0063391 0.0069607 0.00576978 0.0063391 0.00430431 0.00485528 0.0063391 0.0069607 0.00485528 0.00546816 0.0136115 0.0133166 0.0115076 0.0112494 0.0133166 0.0127612 0.0112494 0.0107677 0.0112494 0.0107677 0.00941742 0.00903158 0.0127612 0.0120009 0.0107677 0.0101122 0.0120009 0.0110873 0.0101122 0.00933004 0.0107677 0.0101122 0.00903158 0.00849716 0.0101122 0.00933004 0.00849716 0.00785279 0.0110873 0.0100535 0.00933004 0.00845353 0.0100535 0.00890979 0.00845353 0.00749487 0.00845353 0.00749487 0.007126 0.00632923 0.00890979 0.00765291 0.00749487 0.00645166 0.00765291 0.00628209 0.00645166 0.00531932 0.00749487 0.00645166 0.00632923 0.00546347 0.00645166 0.00531932 0.00546347 0.00452436 0 0.00215915 0 0.00242669 0.00215915 0.00438267 0.00242669 0.00499727 0 0.00242669 0 0.00265534 0.00242669 0.00499727 0.00265534 0.00554059 0 0.00265534 0 0.0027958 0.00265534 0.00554059 0.0027958 0.00588982 0 0.0027958 0 0.00280541 0.0027958 0.00588982 0.00280541 0.00593303 0.00959642 0.00935274 0.0115044 0.0112292 0.0115076 0.0115044 0.0136115 0.0136021 0.0115044 0.0112292 0.0136021 0.0132732 0.00935274 0.00890404 0.0112292 0.0107083 0.0112292 0.0107083 0.0132732 0.0126564 0.0107083 0.0100051 0.0126564 0.0118386 0.00759308 0.00685795 0.00920869 0.00840396 0.0100051 0.00920869 0.0118386 0.0109462 0.00920869 0.00840396 0.0109462 0.0100943 0.00685795 0.00613984 0.00840396 0.00764752 0.00613984 0.00546816 0.00764752 0.0069607 0.00840396 0.00764752 0.0100943 0.00934798 0.00764752 0.0069607 0.00934798 0.00871022 0.00345043 0.00170282 0.00425948 0.00206702 0.00170282 0 0.00206702 0 0.00425948 0.00206702 0.00502901 0.0024067 0.00206702 0 0.0024067 0 0.00502901 0.0024067 0.00562781 0.0026687 0.0024067 0 0.0026687 0 0.00562781 0.0026687 0.00593303 0.00280541 0.0026687 0 0.00280541 0 0 0.00280541 0 0.0026687 0.00280541 0.00593303 0.0026687 0.00562781 0 0.0026687 0 0.0024067 0.0026687 0.00562781 0.0024067 0.00502901 0 0.0024067 0 0.00206702 0.0024067 0.00502901 0.00206702 0.00425948 0 0.00206702 0 0.00170282 0.00206702 0.00425948 0.00170282 0.00345043 0.00871022 0.00934798 0.0069607 0.00764752 0.00934798 0.0100943 0.00764752 0.00840396 0.0069607 0.00764752 0.00546816 0.00613984 0.00764752 0.00840396 0.00613984 0.00685795 0.0100943 0.0109462 0.00840396 0.00920869 0.0109462 0.0118386 0.00920869 0.0100051 0.00840396 0.00920869 0.00685795 0.00759308 0.0118386 0.0126564 0.0100051 0.0107083 0.0126564 0.0132732 0.0107083 0.0112292 0.0107083 0.0112292 0.00890404 0.00935274 0.0132732 0.0136021 0.0112292 0.0115044 0.0136021 0.0136115 0.0115044 0.0115076 0.0112292 0.0115044 0.00935274 0.00959642 0.00593303 0.00280541 0.00588982 0.0027958 0.00280541 0 0.0027958 0 0.00588982 0.0027958 0.00554059 0.00265534 0.0027958 0 0.00265534 0 0.00554059 0.00265534 0.00499727 0.00242669 0.00265534 0 0.00242669 0 0.00499727 0.00242669 0.00438267 0.00215915 0.00242669 0 0.00215915 0 0 0.00164622 0 0.00189155 0.00164622 0.00325452 0.00189155 0.00378646 0 0.00189155 0 0.00215915 0.00189155 0.00378646 0.00215915 0.00438267 0.00325452 0.00480812 0.00378646 0.00565362 0.00378646 0.00565362 0.00438267 0.00662812 0.00565362 0.00745102 0.00662812 0.00884003 0.00298855 0.00204674 0.00400219 0.0026968 0.00523631 0.00400219 0.00692333 0.00520774 0.00400219 0.0026968 0.00520774 0.00345043 0.00204674 0.00104876 0.0026968 0.00135552 0.00104876 0 0.00135552 0 0.0026968 0.00135552 0.00345043 0.00170282 0.00135552 0 0.00170282 0 0 0.00170282 0 0.00135552 0.00170282 0.00345043 0.00135552 0.0026968 0 0.00135552 0 0.00104876 0.00135552 0.0026968 0.00104876 0.00204674 0.00345043 0.00520774 0.0026968 0.00400219 0.00520774 0.00692333 0.00400219 0.00523631 0.0026968 0.00400219 0.00204674 0.00298855 0.00884003 0.00662812 0.00745102 0.00565362 0.00662812 0.00438267 0.00565362 0.00378646 0.00565362 0.00378646 0.00480812 0.00325452 0.00438267 0.00215915 0.00378646 0.00189155 0.00215915 0 0.00189155 0 0.00378646 0.00189155 0.00325452 0.00164622 0.00189155 0 0.00164622 0 0.00030261 0.000482275 0.00046784 0.000814769 0 0 0.000482275 0.000601581 0 0 0.000601581 0.000688451 0.000482275 0.000601581 0.000814769 0.00107209 0.000601581 0.000688451 0.00107209 0.00127046 0 0.00046784 0 0.00059502 0.00046784 0.000814769 0.00059502 0.00107838 0 0.00059502 0 0.000710778 0.00059502 0.00107838 0.000710778 0.00131718 0.00131718 0.000710778 0.00107838 0.00059502 0.000710778 0 0.00059502 0 0.00107838 0.00059502 0.000814769 0.00046784 0.00059502 0 0.00046784 0 0.00127046 0.00107209 0.000688451 0.000601581 0.00107209 0.000814769 0.000601581 0.000482275 0.000688451 0.000601581 0 0 0.000601581 0.000482275 0 0 0.000814769 0.00046784 0.000482275 0.00030261 0.00351311 0.00371171 0.00444515 0.00473296 0.00371171 0.00385381 0.00473296 0.00495041 0.00444515 0.00473296 0.00545587 0.0058488 0.00473296 0.00495041 0.0058488 0.00615807 0.00385381 0.0039276 0.00495041 0.00508131 0.0039276 0.00392184 0.00508131 0.00510998 0.00495041 0.00508131 0.00615807 0.00636161 0.00508131 0.00510998 0.00636161 0.00643777 0.00615807 0.00636161 0.00750757 0.00779742 0.00636161 0.00643777 0.00779742 0.00793159 0.00750757 0.00779742 0.00903158 0.00941742 0.00779742 0.00793159 0.00941742 0.00961544 0.00392184 0.00382901 0.00510998 0.00502588 0.00382901 0.00364772 0.00502588 0.00482663 0.00510998 0.00502588 0.00643777 0.00637139 0.00502588 0.00482663 0.00637139 0.00615894 0.00364772 0.00338435 0.00482663 0.00452075 0.00338435 0.00305263 0.00452075 0.00412644 0.00482663 0.00452075 0.00615894 0.00581135 0.00452075 0.00412644 0.00581135 0.00535325 0.00643777 0.00637139 0.00793159 0.00788868 0.00637139 0.00615894 0.00788868 0.00766331 0.00793159 0.00788868 0.00961544 0.00959642 0.00788868 0.00766331 0.00959642 0.00935274 0.00615894 0.00581135 0.00766331 0.00727007 0.00581135 0.00535325 0.00727007 0.00674247 0.00766331 0.00727007 0.00935274 0.00890404 0.00727007 0.00674247 0.00890404 0.00829642 0 0.00124741 0 0.00143143 0.00124741 0.0024154 0.00143143 0.00279951 0 0.00143143 0 0.00164622 0.00143143 0.00279951 0.00164622 0.00325452 0.0024154 0.00350847 0.00279951 0.00409908 0.00350847 0.00452436 0.00409908 0.00531932 0.00279951 0.00409908 0.00325452 0.00480812 0.00409908 0.00531932 0.00480812 0.00628209 0.00305263 0.00267238 0.00412644 0.00366983 0.00267238 0.00226662 0.00366983 0.00318045 0.00412644 0.00366983 0.00535325 0.00481894 0.00366983 0.00318045 0.00481894 0.00424621 0.00226662 0.00185898 0.00318045 0.00268754 0.00185898 0.00147132 0.00268754 0.00221689 0.00318045 0.00268754 0.00424621 0.00367043 0.00268754 0.00221689 0.00367043 0.00312073 0.00535325 0.00481894 0.00674247 0.00612652 0.00481894 0.00424621 0.00612652 0.00547086 0.00674247 0.00612652 0.00829642 0.00759308 0.00612652 0.00547086 0.00759308 0.00685795 0.00193316 0.00153426 0.00277244 0.00217314 0.00153426 0.00108721 0.00217314 0.00151276 0.00277244 0.00217314 0.00385847 0.00298855 0.00217314 0.00151276 0.00298855 0.00204674 0.00108721 0.000582349 0.00151276 0.000791121 0.000582349 0 0.000791121 0 0.00151276 0.000791121 0.00204674 0.00104876 0.000791121 0 0.00104876 0 0 0.00104876 0 0.000791121 0.00104876 0.00204674 0.000791121 0.00151276 0 0.000791121 0 0.000582349 0.000791121 0.00151276 0.000582349 0.00108721 0.00204674 0.00298855 0.00151276 0.00217314 0.00298855 0.00385847 0.00217314 0.00277244 0.00151276 0.00217314 0.00108721 0.00153426 0.00217314 0.00277244 0.00153426 0.00193316 0.00685795 0.00759308 0.00547086 0.00612652 0.00759308 0.00829642 0.00612652 0.00674247 0.00547086 0.00612652 0.00424621 0.00481894 0.00612652 0.00674247 0.00481894 0.00535325 0.00312073 0.00367043 0.00221689 0.00268754 0.00367043 0.00424621 0.00268754 0.00318045 0.00221689 0.00268754 0.00147132 0.00185898 0.00268754 0.00318045 0.00185898 0.00226662 0.00424621 0.00481894 0.00318045 0.00366983 0.00481894 0.00535325 0.00366983 0.00412644 0.00318045 0.00366983 0.00226662 0.00267238 0.00366983 0.00412644 0.00267238 0.00305263 0.00628209 0.00480812 0.00531932 0.00409908 0.00480812 0.00325452 0.00409908 0.00279951 0.00531932 0.00409908 0.00452436 0.00350847 0.00409908 0.00279951 0.00350847 0.0024154 0.00325452 0.00164622 0.00279951 0.00143143 0.00164622 0 0.00143143 0 0.00279951 0.00143143 0.0024154 0.00124741 0.00143143 0 0.00124741 0 0.00829642 0.00890404 0.00674247 0.00727007 0.00890404 0.00935274 0.00727007 0.00766331 0.00674247 0.00727007 0.00535325 0.00581135 0.00727007 0.00766331 0.00581135 0.00615894 0.00935274 0.00959642 0.00766331 0.00788868 0.00959642 0.00961544 0.00788868 0.00793159 0.00766331 0.00788868 0.00615894 0.00637139 0.00788868 0.00793159 0.00637139 0.00643777 0.00535325 0.00581135 0.00412644 0.00452075 0.00581135 0.00615894 0.00452075 0.00482663 0.00412644 0.00452075 0.00305263 0.00338435 0.00452075 0.00482663 0.00338435 0.00364772 0.00615894 0.00637139 0.00482663 0.00502588 0.00637139 0.00643777 0.00502588 0.00510998 0.00482663 0.00502588 0.00364772 0.00382901 0.00502588 0.00510998 0.00382901 0.00392184 0.00961544 0.00941742 0.00793159 0.00779742 0.00941742 0.00903158 0.00779742 0.00750757 0.00793159 0.00779742 0.00643777 0.00636161 0.00779742 0.00750757 0.00636161 0.00615807 0.00643777 0.00636161 0.00510998 0.00508131 0.00636161 0.00615807 0.00508131 0.00495041 0.00510998 0.00508131 0.00392184 0.0039276 0.00508131 0.00495041 0.0039276 0.00385381 0.00615807 0.0058488 0.00495041 0.00473296 0.0058488 0.00545587 0.00473296 0.00444515 0.00495041 0.00473296 0.00385381 0.00371171 0.00473296 0.00444515 0.00371171 0.00351311 0.000814769 0.00107209 0.00107838 0.00146793 0.00107209 0.00127046 0.00146793 0.0017855 0.00107838 0.00146793 0.00131718 0.00183235 0.00146793 0.0017855 0.00183235 0.00227039 0.00180829 0.00258034 0.00209033 0.0030107 0.00258034 0.00327806 0.0030107 0.00385608 0.00209033 0.0030107 0.0024154 0.00350847 0.0030107 0.00385608 0.00350847 0.00452436 0.00298026 0.00326724 0.00370417 0.00409976 0.00326724 0.00351311 0.00409976 0.00444515 0.00370417 0.00409976 0.00447957 0.00499653 0.00409976 0.00444515 0.00499653 0.00545587 0.00327806 0.00390843 0.00385608 0.00463093 0.00390843 0.00447957 0.00463093 0.0053416 0.00385608 0.00463093 0.00452436 0.00546347 0.00463093 0.0053416 0.00546347 0.00632923 0.00447957 0.00499653 0.0053416 0.00599146 0.00499653 0.00545587 0.00599146 0.00657861 0.0053416 0.00599146 0.00632923 0.007126 0.00599146 0.00657861 0.007126 0.00785279 0.000426955 0.000240119 0.000875226 0.000605839 0.000240119 8.71341e-05 0.000605839 0.000380494 0.000875226 0.000605839 0.00147132 0.00112172 0.000605839 0.000380494 0.00112172 0.000823841 8.71341e-05 -2.64985e-05 0.000380494 0.000206267 -2.64985e-05 -9.86325e-05 0.000206267 8.59152e-05 0.000380494 0.000206267 0.000823841 0.000585932 0.000206267 8.59152e-05 0.000585932 0.000410662 0.00147132 0.00112172 0.00221689 0.00178917 0.00112172 0.000823841 0.00178917 0.00141897 0.00221689 0.00178917 0.00312073 0.00261864 0.00178917 0.00141897 0.00261864 0.00217846 0.000823841 0.000585932 0.00141897 0.00111498 0.000585932 0.000410662 0.00111498 0.000879393 0.00141897 0.00111498 0.00217846 0.00180792 0.00111498 0.000879393 0.00180792 0.00150811 0.00312073 0.00261864 0.00419758 0.00363028 0.00261864 0.00217846 0.00363028 0.00312703 0.00419758 0.00363028 0.00546816 0.00485528 0.00363028 0.00312703 0.00485528 0.00430431 0.00217846 0.00180792 0.00312703 0.00269285 0.00180792 0.00150811 0.00269285 0.00232688 0.00312703 0.00269285 0.00430431 0.00381502 0.00269285 0.00232688 0.00381502 0.00338353 -9.86325e-05 -0.000130767 8.59152e-05 1.71514e-05 -0.000130767 -0.000127599 1.71514e-05 -6.56225e-06 8.59152e-05 1.71