# vtk DataFile Version 3.0
#This file was generated by the deal.II library on 2018/12/12 at 9:49:47
ASCII
DATASET UNSTRUCTURED_GRID

POINTS 6856 double
-0.5 -0.75 0
-0.375 -0.75 0
-0.5 -0.625 0
-0.375 -0.625 0
-0.375 -0.75 0
-0.25 -0.75 0
-0.375 -0.625 0
-0.25 -0.625 0
-0.375 -0.625 0
-0.25 -0.625 0
-0.375 -0.5 0
-0.25 -0.5 0
-0.25 -0.75 0
-0.125 -0.75 0
-0.25 -0.625 0
-0.125 -0.625 0
-0.125 -0.75 0
0 -0.75 0
-0.125 -0.625 0
0 -0.625 0
-0.25 -0.625 0
-0.125 -0.625 0
-0.25 -0.5 0
-0.125 -0.5 0
-0.125 -0.625 0
0 -0.625 0
-0.125 -0.5 0
0 -0.5 0
-1 -0.5 0
-0.875 -0.5 0
-1 -0.375 0
-0.875 -0.375 0
-0.875 -0.5 0
-0.75 -0.5 0
-0.875 -0.375 0
-0.75 -0.375 0
0 -0.75 0
0.125 -0.75 0
0 -0.625 0
0.125 -0.625 0
0.125 -0.75 0
0.25 -0.75 0
0.125 -0.625 0
0.25 -0.625 0
0 -0.625 0
0.125 -0.625 0
0 -0.5 0
0.125 -0.5 0
0.75 -0.5 0
0.875 -0.5 0
0.75 -0.375 0
0.875 -0.375 0
0.875 -0.5 0
1 -0.5 0
0.875 -0.375 0
1 -0.375 0
-1 0.375 0
-0.875 0.375 0
-1 0.5 0
-0.875 0.5 0
-0.875 0.375 0
-0.75 0.375 0
-0.875 0.5 0
-0.75 0.5 0
-0.125 0.5 0
0 0.5 0
-0.125 0.625 0
0 0.625 0
-0.25 0.625 0
-0.125 0.625 0
-0.25 0.75 0
-0.125 0.75 0
-0.125 0.625 0
0 0.625 0
-0.125 0.75 0
0 0.75 0
0.75 0.375 0
0.875 0.375 0
0.75 0.5 0
0.875 0.5 0
0.875 0.375 0
1 0.375 0
0.875 0.5 0
1 0.5 0
0 0.5 0
0.125 0.5 0
0 0.625 0
0.125 0.625 0
0.125 0.5 0
0.25 0.5 0
0.125 0.625 0
0.25 0.625 0
0 0.625 0
0.125 0.625 0
0 0.75 0
0.125 0.75 0
0.125 0.625 0
0.25 0.625 0
0.125 0.75 0
0.25 0.75 0
0.25 0.5 0
0.375 0.5 0
0.25 0.625 0
0.375 0.625 0
0.25 0.625 0
0.375 0.625 0
0.25 0.75 0
0.375 0.75 0
0.375 0.625 0
0.5 0.625 0
0.375 0.75 0
0.5 0.75 0
-0.875 -0.875 0
-0.75 -0.875 0
-0.875 -0.75 0
-0.75 -0.75 0
-0.75 -1 0
-0.625 -1 0
-0.75 -0.875 0
-0.625 -0.875 0
-0.625 -1 0
-0.5 -1 0
-0.625 -0.875 0
-0.5 -0.875 0
-0.75 -0.875 0
-0.625 -0.875 0
-0.75 -0.75 0
-0.625 -0.75 0
-0.625 -0.875 0
-0.5 -0.875 0
-0.625 -0.75 0
-0.5 -0.75 0
-1 -0.75 0
-0.875 -0.75 0
-1 -0.625 0
-0.875 -0.625 0
-0.875 -0.75 0
-0.75 -0.75 0
-0.875 -0.625 0
-0.75 -0.625 0
-1 -0.625 0
-0.875 -0.625 0
-1 -0.5 0
-0.875 -0.5 0
-0.875 -0.625 0
-0.75 -0.625 0
-0.875 -0.5 0
-0.75 -0.5 0
-0.75 -0.75 0
-0.625 -0.75 0
-0.75 -0.625 0
-0.625 -0.625 0
-0.625 -0.75 0
-0.5 -0.75 0
-0.625 -0.625 0
-0.5 -0.625 0
-0.75 -0.625 0
-0.625 -0.625 0
-0.75 -0.5 0
-0.625 -0.5 0
-0.625 -0.625 0
-0.5 -0.625 0
-0.625 -0.5 0
-0.5 -0.5 0
-0.5 -1 0
-0.375 -1 0
-0.5 -0.875 0
-0.375 -0.875 0
-0.375 -1 0
-0.25 -1 0
-0.375 -0.875 0
-0.25 -0.875 0
-0.5 -0.875 0
-0.375 -0.875 0
-0.5 -0.75 0
-0.375 -0.75 0
-0.375 -0.875 0
-0.25 -0.875 0
-0.375 -0.75 0
-0.25 -0.75 0
-0.25 -1 0
-0.125 -1 0
-0.25 -0.875 0
-0.125 -0.875 0
-0.125 -1 0
0 -1 0
-0.125 -0.875 0
0 -0.875 0
-0.25 -0.875 0
-0.125 -0.875 0
-0.25 -0.75 0
-0.125 -0.75 0
-0.125 -0.875 0
0 -0.875 0
-0.125 -0.75 0
0 -0.75 0
0 -1 0
0.125 -1 0
0 -0.875 0
0.125 -0.875 0
0.125 -1 0
0.25 -1 0
0.125 -0.875 0
0.25 -0.875 0
0 -0.875 0
0.125 -0.875 0
0 -0.75 0
0.125 -0.75 0
0.125 -0.875 0
0.25 -0.875 0
0.125 -0.75 0
0.25 -0.75 0
0.25 -1 0
0.375 -1 0
0.25 -0.875 0
0.375 -0.875 0
0.375 -1 0
0.5 -1 0
0.375 -0.875 0
0.5 -0.875 0
0.25 -0.875 0
0.375 -0.875 0
0.25 -0.75 0
0.375 -0.75 0
0.375 -0.875 0
0.5 -0.875 0
0.375 -0.75 0
0.5 -0.75 0
0.25 -0.75 0
0.375 -0.75 0
0.25 -0.625 0
0.375 -0.625 0
0.375 -0.75 0
0.5 -0.75 0
0.375 -0.625 0
0.5 -0.625 0
0.25 -0.625 0
0.375 -0.625 0
0.25 -0.5 0
0.375 -0.5 0
0.375 -0.625 0
0.5 -0.625 0
0.375 -0.5 0
0.5 -0.5 0
0.5 -1 0
0.625 -1 0
0.5 -0.875 0
0.625 -0.875 0
0.625 -1 0
0.75 -1 0
0.625 -0.875 0
0.75 -0.875 0
0.5 -0.875 0
0.625 -0.875 0
0.5 -0.75 0
0.625 -0.75 0
0.625 -0.875 0
0.75 -0.875 0
0.625 -0.75 0
0.75 -0.75 0
0.5 -0.75 0
0.625 -0.75 0
0.5 -0.625 0
0.625 -0.625 0
0.625 -0.75 0
0.75 -0.75 0
0.625 -0.625 0
0.75 -0.625 0
0.5 -0.625 0
0.625 -0.625 0
0.5 -0.5 0
0.625 -0.5 0
0.625 -0.625 0
0.75 -0.625 0
0.625 -0.5 0
0.75 -0.5 0
0.75 -0.75 0
0.875 -0.75 0
0.75 -0.625 0
0.875 -0.625 0
0.875 -0.75 0
1 -0.75 0
0.875 -0.625 0
1 -0.625 0
0.75 -0.625 0
0.875 -0.625 0
0.75 -0.5 0
0.875 -0.5 0
0.875 -0.625 0
1 -0.625 0
0.875 -0.5 0
1 -0.5 0
-1 0.5 0
-0.875 0.5 0
-1 0.625 0
-0.875 0.625 0
-0.875 0.5 0
-0.75 0.5 0
-0.875 0.625 0
-0.75 0.625 0
-1 0.625 0
-0.875 0.625 0
-1 0.75 0
-0.875 0.75 0
-0.875 0.625 0
-0.75 0.625 0
-0.875 0.75 0
-0.75 0.75 0
-0.75 0.5 0
-0.625 0.5 0
-0.75 0.625 0
-0.625 0.625 0
-0.625 0.5 0
-0.5 0.5 0
-0.625 0.625 0
-0.5 0.625 0
-0.75 0.625 0
-0.625 0.625 0
-0.75 0.75 0
-0.625 0.75 0
-0.625 0.625 0
-0.5 0.625 0
-0.625 0.75 0
-0.5 0.75 0
-0.75 0.75 0
-0.625 0.75 0
-0.75 0.875 0
-0.625 0.875 0
-0.625 0.75 0
-0.5 0.75 0
-0.625 0.875 0
-0.5 0.875 0
-0.75 0.875 0
-0.625 0.875 0
-0.75 1 0
-0.625 1 0
-0.625 0.875 0
-0.5 0.875 0
-0.625 1 0
-0.5 1 0
-0.5 0.5 0
-0.375 0.5 0
-0.5 0.625 0
-0.375 0.625 0
-0.375 0.5 0
-0.25 0.5 0
-0.375 0.625 0
-0.25 0.625 0
-0.5 0.625 0
-0.375 0.625 0
-0.5 0.75 0
-0.375 0.75 0
-0.375 0.625 0
-0.25 0.625 0
-0.375 0.75 0
-0.25 0.75 0
-0.5 0.75 0
-0.375 0.75 0
-0.5 0.875 0
-0.375 0.875 0
-0.375 0.75 0
-0.25 0.75 0
-0.375 0.875 0
-0.25 0.875 0
-0.5 0.875 0
-0.375 0.875 0
-0.5 1 0
-0.375 1 0
-0.375 0.875 0
-0.25 0.875 0
-0.375 1 0
-0.25 1 0
-0.25 0.75 0
-0.125 0.75 0
-0.25 0.875 0
-0.125 0.875 0
-0.125 0.75 0
0 0.75 0
-0.125 0.875 0
0 0.875 0
-0.25 0.875 0
-0.125 0.875 0
-0.25 1 0
-0.125 1 0
-0.125 0.875 0
0 0.875 0
-0.125 1 0
0 1 0
0 0.75 0
0.125 0.75 0
0 0.875 0
0.125 0.875 0
0.125 0.75 0
0.25 0.75 0
0.125 0.875 0
0.25 0.875 0
0 0.875 0
0.125 0.875 0
0 1 0
0.125 1 0
0.125 0.875 0
0.25 0.875 0
0.125 1 0
0.25 1 0
0.25 0.75 0
0.375 0.75 0
0.25 0.875 0
0.375 0.875 0
0.375 0.75 0
0.5 0.75 0
0.375 0.875 0
0.5 0.875 0
0.25 0.875 0
0.375 0.875 0
0.25 1 0
0.375 1 0
0.375 0.875 0
0.5 0.875 0
0.375 1 0
0.5 1 0
0.5 0.5 0
0.625 0.5 0
0.5 0.625 0
0.625 0.625 0
0.625 0.5 0
0.75 0.5 0
0.625 0.625 0
0.75 0.625 0
0.5 0.625 0
0.625 0.625 0
0.5 0.75 0
0.625 0.75 0
0.625 0.625 0
0.75 0.625 0
0.625 0.75 0
0.75 0.75 0
0.75 0.5 0
0.875 0.5 0
0.75 0.625 0
0.875 0.625 0
0.875 0.5 0
1 0.5 0
0.875 0.625 0
1 0.625 0
0.75 0.625 0
0.875 0.625 0
0.75 0.75 0
0.875 0.75 0
0.875 0.625 0
1 0.625 0
0.875 0.75 0
1 0.75 0
0.5 0.75 0
0.625 0.75 0
0.5 0.875 0
0.625 0.875 0
0.625 0.75 0
0.75 0.75 0
0.625 0.875 0
0.75 0.875 0
0.5 0.875 0
0.625 0.875 0
0.5 1 0
0.625 1 0
0.625 0.875 0
0.75 0.875 0
0.625 1 0
0.75 1 0
0.75 0.75 0
0.875 0.75 0
0.75 0.875 0
0.875 0.875 0
0.75 -1 0
0.875 -1 0
0.75 -0.875 0
0.875 -0.875 0
0.875 -1 0
1 -1 0
0.875 -0.875 0
1 -0.875 0
0.75 -0.875 0
0.875 -0.875 0
0.75 -0.75 0
0.875 -0.75 0
0.875 -0.875 0
1 -0.875 0
0.875 -0.75 0
1 -0.75 0
-1 0.75 0
-0.875 0.75 0
-1 0.875 0
-0.875 0.875 0
-0.875 0.75 0
-0.75 0.75 0
-0.875 0.875 0
-0.75 0.875 0
-1 0.875 0
-0.875 0.875 0
-1 1 0
-0.875 1 0
-0.875 0.875 0
-0.75 0.875 0
-0.875 1 0
-0.75 1 0
-0.625 -0.375 0
-0.5625 -0.375 0
-0.625 -0.3125 0
-0.5625 -0.3125 0
-0.5625 -0.375 0
-0.5 -0.375 0
-0.5625 -0.3125 0
-0.5 -0.3125 0
-0.625 -0.3125 0
-0.5625 -0.3125 0
-0.625 -0.25 0
-0.5625 -0.25 0
-0.5 -0.375 0
-0.4375 -0.375 0
-0.5 -0.3125 0
-0.4375 -0.3125 0
-0.4375 -0.375 0
-0.375 -0.375 0
-0.4375 -0.3125 0
-0.375 -0.3125 0
-0.4375 -0.3125 0
-0.375 -0.3125 0
-0.4375 -0.25 0
-0.375 -0.25 0
0.375 -0.375 0
0.4375 -0.375 0
0.375 -0.3125 0
0.4375 -0.3125 0
0.4375 -0.375 0
0.5 -0.375 0
0.4375 -0.3125 0
0.5 -0.3125 0
0.375 -0.3125 0
0.4375 -0.3125 0
0.375 -0.25 0
0.4375 -0.25 0
0.5 -0.375 0
0.5625 -0.375 0
0.5 -0.3125 0
0.5625 -0.3125 0
0.5625 -0.375 0
0.625 -0.375 0
0.5625 -0.3125 0
0.625 -0.3125 0
0.5625 -0.3125 0
0.625 -0.3125 0
0.5625 -0.25 0
0.625 -0.25 0
-0.625 0.25 0
-0.5625 0.25 0
-0.625 0.3125 0
-0.5625 0.3125 0
-0.625 0.3125 0
-0.5625 0.3125 0
-0.625 0.375 0
-0.5625 0.375 0
-0.5625 0.3125 0
-0.5 0.3125 0
-0.5625 0.375 0
-0.5 0.375 0
-0.4375 0.25 0
-0.375 0.25 0
-0.4375 0.3125 0
-0.375 0.3125 0
-0.5 0.3125 0
-0.4375 0.3125 0
-0.5 0.375 0
-0.4375 0.375 0
-0.4375 0.3125 0
-0.375 0.3125 0
-0.4375 0.375 0
-0.375 0.375 0
0.375 0.25 0
0.4375 0.25 0
0.375 0.3125 0
0.4375 0.3125 0
0.375 0.3125 0
0.4375 0.3125 0
0.375 0.375 0
0.4375 0.375 0
0.4375 0.3125 0
0.5 0.3125 0
0.4375 0.375 0
0.5 0.375 0
0.5625 0.25 0
0.625 0.25 0
0.5625 0.3125 0
0.625 0.3125 0
0.5 0.3125 0
0.5625 0.3125 0
0.5 0.375 0
0.5625 0.375 0
0.5625 0.3125 0
0.625 0.3125 0
0.5625 0.375 0
0.625 0.375 0
-0.75 -0.375 0
-0.6875 -0.375 0
-0.75 -0.3125 0
-0.6875 -0.3125 0
-0.6875 -0.375 0
-0.625 -0.375 0
-0.6875 -0.3125 0
-0.625 -0.3125 0
-0.75 -0.3125 0
-0.6875 -0.3125 0
-0.75 -0.25 0
-0.6875 -0.25 0
-0.6875 -0.3125 0
-0.625 -0.3125 0
-0.6875 -0.25 0
-0.625 -0.25 0
-0.75 -0.25 0
-0.6875 -0.25 0
-0.75 -0.1875 0
-0.6875 -0.1875 0
-0.75 -0.1875 0
-0.6875 -0.1875 0
-0.75 -0.125 0
-0.6875 -0.125 0
-0.5625 -0.125 0
-0.5 -0.125 0
-0.5625 -0.0625 0
-0.5 -0.0625 0
-0.625 -0.0625 0
-0.5625 -0.0625 0
-0.625 0 0
-0.5625 0 0
-0.5625 -0.0625 0
-0.5 -0.0625 0
-0.5625 0 0
-0.5 0 0
-0.375 -0.375 0
-0.3125 -0.375 0
-0.375 -0.3125 0
-0.3125 -0.3125 0
-0.3125 -0.375 0
-0.25 -0.375 0
-0.3125 -0.3125 0
-0.25 -0.3125 0
-0.375 -0.3125 0
-0.3125 -0.3125 0
-0.375 -0.25 0
-0.3125 -0.25 0
-0.3125 -0.3125 0
-0.25 -0.3125 0
-0.3125 -0.25 0
-0.25 -0.25 0
-0.3125 -0.25 0
-0.25 -0.25 0
-0.3125 -0.1875 0
-0.25 -0.1875 0
-0.3125 -0.1875 0
-0.25 -0.1875 0
-0.3125 -0.125 0
-0.25 -0.125 0
-0.5 -0.125 0
-0.4375 -0.125 0
-0.5 -0.0625 0
-0.4375 -0.0625 0
-0.5 -0.0625 0
-0.4375 -0.0625 0
-0.5 0 0
-0.4375 0 0
-0.4375 -0.0625 0
-0.375 -0.0625 0
-0.4375 0 0
-0.375 0 0
-0.25 -0.25 0
-0.1875 -0.25 0
-0.25 -0.1875 0
-0.1875 -0.1875 0
-0.0625 -0.125 0
0 -0.125 0
-0.0625 -0.0625 0
0 -0.0625 0
-0.125 -0.0625 0
-0.0625 -0.0625 0
-0.125 0 0
-0.0625 0 0
-0.0625 -0.0625 0
0 -0.0625 0
-0.0625 0 0
0 0 0
0.25 -0.375 0
0.3125 -0.375 0
0.25 -0.3125 0
0.3125 -0.3125 0
0.3125 -0.375 0
0.375 -0.375 0
0.3125 -0.3125 0
0.375 -0.3125 0
0.25 -0.3125 0
0.3125 -0.3125 0
0.25 -0.25 0
0.3125 -0.25 0
0.3125 -0.3125 0
0.375 -0.3125 0
0.3125 -0.25 0
0.375 -0.25 0
0.125 -0.25 0
0.1875 -0.25 0
0.125 -0.1875 0
0.1875 -0.1875 0
0.1875 -0.25 0
0.25 -0.25 0
0.1875 -0.1875 0
0.25 -0.1875 0
0 -0.125 0
0.0625 -0.125 0
0 -0.0625 0
0.0625 -0.0625 0
0 -0.0625 0
[...]
POINT_DATA 6856
SCALARS x_displacement double 1
LOOKUP_TABLE default
0.00351686 0.00385775 0.0054615 0.00616508 0.00385775 0.00392565 0.00616508 0.00644394 0.00616508 0.00644394 0.00903985 0.00962443 0.00392565 0.00365111 0.00644394 0.0061647 0.00365111 0.00305547 0.0061647 0.00535836 0.00644394 0.0061647 0.00962443 0.00936147 0.0061647 0.00535836 0.00936147 0.00830442 0 0.00241834 0 0.00325785 0.00241834 0.00452913 0.00325785 0.00628682 0.00305547 0.0022687 0.00535836 0.00425083 0.0022687 0.00147263 0.00425083 0.00312374 0.00535836 0.00425083 0.00830442 0.00686462 0.00193538 0.00108904 0.00386055 0.00204876 0.00108904 0 0.00204876 0 0 0.00204876 0 0.00108904 0.00204876 0.00386055 0.00108904 0.00193538 0.00686462 0.00830442 0.00425083 0.00535836 0.00312374 0.00425083 0.00147263 0.0022687 0.00425083 0.00535836 0.0022687 0.00305547 0.00628682 0.00325785 0.00452913 0.00241834 0.00325785 0 0.00241834 0 0.00830442 0.00936147 0.00535836 0.0061647 0.00936147 0.00962443 0.0061647 0.00644394 0.00535836 0.0061647 0.00305547 0.00365111 0.0061647 0.00644394 0.00365111 0.00392565 0.00962443 0.00903985 0.00644394 0.00616508 0.00644394 0.00616508 0.00392565 0.00385775 0.00616508 0.0054615 0.00385775 0.00351686 0.000815781 0.00127129 0.00131787 0.00227342 0 0 0.00127129 0.001565 0 0 0.001565 0.00176844 0.00127129 0.001565 0.00227342 0.00298308 0.001565 0.00176844 0.00298308 0.00351686 0 0.00131787 0 0.00180973 0.00131787 0.00227342 0.00180973 0.00328119 0 0.00180973 0 0.00241834 0.00180973 0.00328119 0.00241834 0.00452913 0.00227342 0.00298308 0.00328119 0.00448465 0.00298308 0.00351686 0.00448465 0.0054615 0.00328119 0.00448465 0.00452913 0.00633569 0.00448465 0.0054615 0.00633569 0.00786012 0 0 0.00176844 0.00187883 0 0 0.00187883 0.00185525 0.00176844 0.00187883 0.00351686 0.00385775 0.00187883 0.00185525 0.00385775 0.00392565 0 0 0.00185525 0.00166244 0 0 0.00166244 0.0013105 0.00185525 0.00166244 0.00392565 0.00365111 0.00166244 0.0013105 0.00365111 0.00305547 0 0 0.0013105 0.000865805 0 0 0.000865805 0.000427161 0.0013105 0.000865805 0.00305547 0.0022687 0.000865805 0.000427161 0.0022687 0.00147263 0 0 0.000427161 8.71384e-05 0 0 8.71384e-05 -9.8797e-05 0.000427161 8.71384e-05 0.00147263 0.000824567 8.71384e-05 -9.8797e-05 0.000824567 0.000411004 0.00147263 0.000824567 0.00312374 0.00218044 0.000824567 0.000411004 0.00218044 0.00150951 0.00312374 0.00218044 0.00547361 0.00430881 0.00218044 0.00150951 0.00430881 0.00338699 0 0 -9.8797e-05 -0.000127829 0 0 -0.000127829 -5.08727e-05 -9.8797e-05 -0.000127829 0.000411004 0.000230672 -0.000127829 -5.08727e-05 0.000230672 0.000199721 0.000411004 0.000230672 0.00150951 0.00109157 0.000230672 0.000199721 0.00109157 0.000810412 0.00150951 0.00109157 0.00338699 0.00264808 0.00109157 0.000810412 0.00264808 0.00193538 0.000199721 0.000178077 0.000810412 0.000503686 0.000178077 0 0.000503686 0 0.000810412 0.000503686 0.00193538 0.00108904 0.000503686 0 0.00108904 0 0 0.00108904 0 0.000503686 0.00108904 0.00193538 0.000503686 0.000810412 0 0.000503686 0 0.000178077 0.000503686 0.000810412 0.000178077 0.000199721 0.00193538 0.00264808 0.000810412 0.00109157 0.00264808 0.00338699 0.00109157 0.00150951 0.000810412 0.00109157 0.000199721 0.000230672 0.00109157 0.00150951 0.000230672 0.000411004 0.000199721 0.000230672 -5.08727e-05 -0.000127829 0.000230672 0.000411004 -0.000127829 -9.8797e-05 -5.08727e-05 -0.000127829 0 0 -0.000127829 -9.8797e-05 0 0 0.00338699 0.00430881 0.00150951 0.00218044 0.00430881 0.00547361 0.00218044 0.00312374 0.00150951 0.00218044 0.000411004 0.000824567 0.00218044 0.00312374 0.000824567 0.00147263 0.000411004 0.000824567 -9.8797e-05 8.71384e-05 0.000824567 0.00147263 8.71384e-05 0.000427161 -9.8797e-05 8.71384e-05 0 0 8.71384e-05 0.000427161 0 0 0.00147263 0.0022687 0.000427161 0.000865805 0.0022687 0.00305547 0.000865805 0.0013105 0.000427161 0.000865805 0 0 0.000865805 0.0013105 0 0 0.00305547 0.00365111 0.0013105 0.00166244 0.00365111 0.00392565 0.00166244 0.00185525 0.0013105 0.00166244 0 0 0.00166244 0.00185525 0 0 0.00392565 0.00385775 0.00185525 0.00187883 0.00385775 0.00351686 0.00187883 0.00176844 0.00185525 0.00187883 0 0 0.00187883 0.00176844 0 0 0.00786012 0.00633569 0.0054615 0.00448465 0.00633569 0.00452913 0.00448465 0.00328119 0.0054615 0.00448465 0.00351686 0.00298308 0.00448465 0.00328119 0.00298308 0.00227342 0.00452913 0.00241834 0.00328119 0.00180973 0.00241834 0 0.00180973 0 0.00328119 0.00180973 0.00227342 0.00131787 0.00180973 0 0.00131787 0 0.00351686 0.00298308 0.00176844 0.001565 0.00298308 0.00227342 0.001565 0.00127129 0.00176844 0.001565 0 0 0.001565 0.00127129 0 0 0.00227342 0.00131787 0.00127129 0.000815781 0 0 -5.08727e-05 3.56706e-05 0 0 3.56706e-05 0 -5.08727e-05 3.56706e-05 0.000199721 0.000178077 3.56706e-05 0 0.000178077 0 0 0.000178077 0 3.56706e-05 0.000178077 0.000199721 3.56706e-05 -5.08727e-05 0 3.56706e-05 0 0 3.56706e-05 -5.08727e-05 0 0 0.00891817 0.010063 0.0106837 0.0120623 0.010063 0.011098 0.0120623 0.0132659 0.0106837 0.0120623 0.0129342 0.0146755 0.011098 0.0120124 0.0132659 0.0142814 0.0120124 0.0127733 0.0142814 0.0150855 0.0142814 0.0150855 0.0171165 0.0177932 0.00761784 0.00708487 0.00995962 0.00948787 0.00708487 0.00653875 0.00948787 0.00890995 0.00995962 0.00948787 0.0129637 0.0127045 0.00653875 0.00596491 0.00890995 0.00820412 0.00596491 0.00534198 0.00820412 0.00735699 0.00820412 0.00735699 0.0112408 0.0100068 0.0100068 0.0112408 0.00735699 0.00820412 0.00735699 0.00820412 0.00534198 0.00596491 0.00820412 0.00890995 0.00596491 0.00653875 0.0127045 0.0129637 0.00948787 0.00995962 0.00890995 0.00948787 0.00653875 0.00708487 0.00948787 0.00995962 0.00708487 0.00761784 0.0177932 0.0171165 0.0150855 0.0142814 0.0150855 0.0142814 0.0127733 0.0120124 0.0142814 0.0132659 0.0120124 0.011098 0.0146755 0.0129342 0.0120623 0.0106837 0.0132659 0.0120623 0.011098 0.010063 0.0120623 0.0106837 0.010063 0.00891817 0.00628682 0.00766012 0.00745765 0.00914308 0.00766012 0.00891817 0.00914308 0.0106837 0.00745765 0.00914308 0.00884896 0.0109682 0.00914308 0.0106837 0.0109682 0.0129342 0.00884896 0.0109682 0.0104025 0.0131259 0.0104025 0.0131259 0.0119097 0.0153743 0.0217081 0.0235009 0.0235036 0.025261 0.0207692 0.0235036 0.0210757 0.0237387 0.0235036 0.025261 0.0237387 0.0254155 0.0127733 0.0133293 0.0150855 0.0156453 0.0133293 0.0136245 0.0156453 0.0159164 0.0150855 0.0156453 0.0177932 0.0181861 0.0156453 0.0159164 0.0181861 0.0183047 0.0181861 0.0183047 0.0208386 0.0205847 0.0208386 0.0205847 0.0232607 0.0223958 0.0235009 0.0243294 0.025261 0.0260491 0.025261 0.0260491 0.0254155 0.0261129 0.0260491 0.0258764 0.0261129 0.0258398 0.0183047 0.0181116 0.0205847 0.0201343 0.0194934 0.0187585 0.0201463 0.0196844 0.0209134 0.0201463 0.0206775 0.0201727 0.0201463 0.0196844 0.0201727 0.0200085 0.00871902 0.00815299 0.0107679 0.0103654 0.00815299 0.00761784 0.0103654 0.00995962 0.0107679 0.0103654 0.0131462 0.0130674 0.0103654 0.00995962 0.0130674 0.0129637 0.0138114 0.0133447 0.0158093 0.0156075 0.0133447 0.0131462 0.0156075 0.0158328 0.0187585 0.018244 0.0196844 0.0195215 0.0196844 0.0195215 0.0200085 0.0201727 0.0195215 0.0196658 0.0201727 0.0206775 0.0131462 0.0130674 0.0158328 0.0162808 0.0216025 0.0211467 0.0246043 0.0240254 0.0242038 0.0246043 0.0258398 0.0261129 0.0246043 0.0240254 0.0261129 0.0254155 0.00534198 0.00464592 0.00735699 0.00636644 0.00464592 0.00386055 0.00636644 0.00524085 0.00735699 0.00636644 0.0100068 0.00854732 0.00636644 0.00524085 0.00854732 0.00693067 0.00854732 0.00693067 0.011179 0.00886963 0.011179 0.00886963 0.0140077 0.0108389 0.0211467 0.0197034 0.0240254 0.0224591 0.0240254 0.0224591 0.0254155 0.0237387 0.0224591 0.0199001 0.0237387 0.0210757 0.0210757 0.0237387 0.0199001 0.0224591 0.0237387 0.0254155 0.0224591 0.0240254 0.0224591 0.0240254 0.0197034 0.0211467 0.0108389 0.0140077 0.00886963 0.011179 0.00886963 0.011179 0.00693067 0.00854732 0.00693067 0.00854732 0.00524085 0.00636644 0.00854732 0.0100068 0.00636644 0.00735699 0.00524085 0.00636644 0.00386055 0.00464592 0.00636644 0.00735699 0.00464592 0.00534198 0.0254155 0.0261129 0.0240254 0.0246043 0.0261129 0.0258398 0.0246043 0.0242038 0.0240254 0.0246043 0.0211467 0.0216025 0.0162808 0.0158328 0.0130674 0.0131462 0.0206775 0.0201727 0.0196658 0.0195215 0.0201727 0.0200085 0.0195215 0.0196844 0.0195215 0.0196844 0.018244 0.0187585 0.0158328 0.0156075 0.0131462 0.0133447 0.0156075 0.0158093 0.0133447 0.0138114 0.0129637 0.0130674 0.00995962 0.0103654 0.0130674 0.0131462 0.0103654 0.0107679 0.00995962 0.0103654 0.00761784 0.00815299 0.0103654 0.0107679 0.00815299 0.00871902 0.0200085 0.0201727 0.0196844 0.0201463 0.0201727 0.0206775 0.0201463 0.0209134 0.0196844 0.0201463 0.0187585 0.0194934 0.0201343 0.0205847 0.0181116 0.0183047 0.0258398 0.0261129 0.0258764 0.0260491 0.0261129 0.0254155 0.0260491 0.025261 0.0260491 0.025261 0.0243294 0.0235009 0.0223958 0.0232607 0.0205847 0.0208386 0.0205847 0.0208386 0.0183047 0.0181861 0.0183047 0.0181861 0.0159164 0.0156453 0.0181861 0.0177932 0.0156453 0.0150855 0.0159164 0.0156453 0.0136245 0.0133293 0.0156453 0.0150855 0.0133293 0.0127733 0.0254155 0.0237387 0.025261 0.0235036 0.0237387 0.0210757 0.0235036 0.0207692 0.025261 0.0235036 0.0235009 0.0217081 0.0153743 0.0119097 0.0131259 0.0104025 0.0131259 0.0104025 0.0109682 0.00884896 0.0129342 0.0109682 0.0106837 0.00914308 0.0109682 0.00884896 0.00914308 0.00745765 0.0106837 0.00914308 0.00891817 0.00766012 0.00914308 0.00745765 0.00766012 0.00628682 0.00554577 0.0086347 0.00589504 0.00928181 0.0086347 0.0119097 0.00928181 0.012988 0.00589504 0.00928181 0.00593815 0.00939281 0.00928181 0.012988 0.00939281 0.0132197 0.0108389 0.0078485 0.0124371 0.00887833 0.0078485 0.00503375 0.00887833 0.00563282 0.0124371 0.00887833 0.0132197 0.00939281 0.00887833 0.00563282 0.00939281 0.00593815 0.00593815 0.00939281 0.00563282 0.00887833 0.00939281 0.0132197 0.00887833 0.0124371 0.00563282 0.00887833 0.00503375 0.0078485 0.00887833 0.0124371 0.0078485 0.0108389 0.0132197 0.00939281 0.012988 0.00928181 0.00939281 0.00593815 0.00928181 0.00589504 0.012988 0.00928181 0.0119097 0.0086347 0.00928181 0.00589504 0.0086347 0.00554577 0.00264808 0.0022989 0.00381188 0.00331664 0.0022989 0.00193538 0.00331664 0.00277568 0.00381188 0.00331664 0.00534198 0.00464592 0.00331664 0.00277568 0.00464592 0.00386055 0.00386055 0.00464592 0.00277568 0.00331664 0.00464592 0.00534198 0.00331664 0.00381188 0.00277568 0.00331664 0.00193538 0.0022989 0.00331664 0.00381188 0.0022989 0.00264808 0.00438686 0.00663451 0.00500211 0.0076761 0.00663451 0.00884896 0.0076761 0.0104025 0.00500211 0.0076761 0.00554577 0.0086347 0.0076761 0.0104025 0.0086347 0.0119097 0.0136245 0.0136153 0.0159164 0.015856 0.0136153 0.0132861 0.015856 0.0154409 0.0159164 0.015856 0.0183047 0.0181116 0.015856 0.0154409 0.0181116 0.0175675 0.0132861 0.012669 0.0154409 0.0147031 0.0154409 0.0147031 0.0175675 0.0166926 0.0147031 0.0137548 0.0166926 0.0156331 0.0118506 0.0109577 0.0137548 0.0127721 0.0109577 0.010105 0.0127721 0.0119145 0.0137548 0.0127721 0.0156331 0.0146056 0.0127721 0.0119145 0.0146056 0.0138114 0.010105 0.00935777 0.0119145 0.0112557 0.00935777 0.00871902 0.0112557 0.0107679 0.0119145 0.0112557 0.0138114 0.0133447 0.0112557 0.0107679 0.0133447 0.0131462 0.00693067 0.00521291 0.00886963 0.00654604 0.00521291 0.00345378 0.00654604 0.00426368 0.00886963 0.00654604 0.0108389 0.0078485 0.00654604 0.00426368 0.0078485 0.00503375 0.00503375 0.0078485 0.00426368 0.00654604 0.0078485 0.0108389 0.00654604 0.00886963 0.00426368 0.00654604 0.00345378 0.00521291 0.00654604 0.00886963 0.00521291 0.00693067 0.0131462 0.0133447 0.0107679 0.0112557 0.0133447 0.0138114 0.0112557 0.0119145 0.0107679 0.0112557 0.00871902 0.00935777 0.0112557 0.0119145 0.00935777 0.010105 0.0138114 0.0146056 0.0119145 0.0127721 0.0146056 0.0156331 0.0127721 0.0137548 0.0119145 0.0127721 0.010105 0.0109577 0.0127721 0.0137548 0.0109577 0.0118506 0.0156331 0.0166926 0.0137548 0.0147031 0.0166926 0.0175675 0.0147031 0.0154409 0.0147031 0.0154409 0.012669 0.0132861 0.0175675 0.0181116 0.0154409 0.015856 0.0181116 0.0183047 0.015856 0.0159164 0.0154409 0.015856 0.0132861 0.0136153 0.015856 0.0159164 0.0136153 0.0136245 0.0119097 0.0086347 0.0104025 0.0076761 0.0086347 0.00554577 0.0076761 0.00500211 0.0104025 0.0076761 0.00884896 0.00663451 0.0076761 0.00500211 0.00663451 0.00438686 0.0054615 0.00585424 0.00658517 0.00709828 0.00585424 0.00616508 0.00709828 0.00751477 0.00658517 0.00709828 0.00786012 0.00850601 0.00709828 0.00751477 0.00850601 0.00903985 0.00425083 0.00367375 0.00547582 0.0048219 0.00367375 0.00312374 0.0048219 0.00420131 0.00547582 0.0048219 0.00686462 0.00614607 0.0048219 0.00420131 0.00614607 0.00547361 0.00547361 0.00614607 0.00420131 0.0048219 0.00614607 0.00686462 0.0048219 0.00547582 0.00420131 0.0048219 0.00312374 0.00367375 0.0048219 0.00547582 0.00367375 0.00425083 0.00903985 0.00850601 0.00751477 0.00709828 0.00850601 0.00786012 0.00709828 0.00658517 0.00751477 0.00709828 0.00616508 0.00585424 0.00709828 0.00658517 0.00585424 0.0054615 0.00452913 0.00546811 0.00532505 0.00645792 0.00546811 0.00633569 0.00645792 0.0075023 0.00532505 0.00645792 0.00628682 0.00766012 0.00645792 0.0075023 0.00766012 0.00891817 0.00633569 0.0071328 0.0075023 0.00846174 0.0071328 0.00786012 0.00846174 0.00933942 0.0075023 0.00846174 0.00891817 0.010063 0.00846174 0.00933942 0.010063 0.011098 0.00786012 0.00850601 0.00933942 0.0101221 0.00850601 0.00903985 0.0101221 0.010778 0.00933942 0.0101221 0.011098 0.0120124 0.0101221 0.010778 0.0120124 0.0127733 0.00903985 0.00942655 0.010778 0.0112603 0.00942655 0.00962443 0.0112603 0.0115183 0.010778 0.0112603 0.0127733 0.0133293 0.0112603 0.0115183 0.0133293 0.0136245 0.00547361 0.00485966 0.00696774 0.00634506 0.00485966 0.00430881 0.00634506 0.00577552 0.00696774 0.00634506 0.00871902 0.00815299 0.00634506 0.00577552 0.00815299 0.00761784 0.00430881 0.00381826 0.00577552 0.00524733 0.00381826 0.00338699 0.00524733 0.00475408 0.00577552 0.00524733 0.00761784 0.00708487 0.00524733 0.00475408 0.00708487 0.00653875 0.00338699 0.00300213 0.00475408 0.00428208 0.00300213 0.00264808 0.00428208 0.00381188 0.00475408 0.00428208 0.00653875 0.00596491 0.00428208 0.00381188 0.00596491 0.00534198 0.00534198 0.00596491 0.00381188 0.00428208 0.00596491 0.00653875 0.00428208 0.00475408 0.00381188 0.00428208 0.00264808 0.00300213 0.00428208 0.00475408 0.00300213 0.00338699 0.00653875 0.00708487 0.00475408 0.00524733 0.00708487 0.00761784 0.00524733 0.00577552 0.00475408 0.00524733 0.00338699 0.00381826 0.00524733 0.00577552 0.00381826 0.00430881 0.00761784 0.00815299 0.00577552 0.00634506 0.00815299 0.00871902 0.00634506 0.00696774 0.00577552 0.00634506 0.00430881 0.00485966 0.00634506 0.00696774 0.00485966 0.00547361 0.0136245 0.0133293 0.0115183 0.0112603 0.0133293 0.0127733 0.0112603 0.010778 0.0115183 0.0112603 0.00962443 0.00942655 0.0112603 0.010778 0.00942655 0.00903985 0.0127733 0.0120124 0.010778 0.0101221 0.0120124 0.011098 0.0101221 0.00933942 0.010778 0.0101221 0.00903985 0.00850601 0.0101221 0.00933942 0.00850601 0.00786012 0.011098 0.010063 0.00933942 0.00846174 0.010063 0.00891817 0.00846174 0.0075023 0.00933942 0.00846174 0.00786012 0.0071328 0.00846174 0.0075023 0.0071328 0.00633569 0.00891817 0.00766012 0.0075023 0.00645792 0.00766012 0.00628682 0.00645792 0.00532505 0.0075023 0.00645792 0.00633569 0.00546811 0.00645792 0.00532505 0.00546811 0.00452913 0 0.00216113 0 0.00242899 0.00216113 0.00438686 0.00242899 0.00500211 0 0.00242899 0 0.00265781 0.00242899 0.00500211 0.00265781 0.00554577 0 0.00265781 0 0.00279832 0.00265781 0.00554577 0.00279832 0.00589504 0 0.00279832 0 0.00280791 0.00279832 0.00589504 0.00280791 0.00593815 0.00962443 0.0096057 0.0115183 0.0115154 0.0096057 0.00936147 0.0115154 0.0112398 0.0115183 0.0115154 0.0136245 0.0136153 0.0115154 0.0112398 0.0136153 0.0132861 0.00936147 0.00891267 0.0112398 0.0107186 0.00891267 0.00830442 0.0107186 0.0100151 0.0112398 0.0107186 0.0132861 0.012669 0.0107186 0.0100151 0.012669 0.0118506 0.00830442 0.00760107 0.0100151 0.00921832 0.00760107 0.00686462 0.00921832 0.00841256 0.0100151 0.00921832 0.0118506 0.0109577 0.00921832 0.00841256 0.0109577 0.010105 0.00686462 0.00614607 0.00841256 0.00765545 0.00614607 0.00547361 0.00765545 0.00696774 0.00841256 0.00765545 0.010105 0.00935777 0.00765545 0.00696774 0.00935777 0.00871902 0.00345378 0.00170438 0.00426368 0.002069 0.00170438 0 0.002069 0 0.00426368 0.002069 0.00503375 0.00240896 0.002069 0 0.00240896 0 0.00503375 0.00240896 0.00563282 0.00267112 0.00240896 0 0.00267112 0 0.00563282 0.00267112 0.00593815 0.00280791 0.00267112 0 0.00280791 0 0 0.00280791 0 0.00267112 0.00280791 0.00593815 0.00267112 0.00563282 0 0.00267112 0 0.00240896 0.00267112 0.00563282 0.00240896 0.00503375 0 0.00240896 0 0.002069 0.00240896 0.00503375 0.002069 0.00426368 0 0.002069 0 0.00170438 0.002069 0.00426368 0.00170438 0.00345378 0.00871902 0.00935777 0.00696774 0.00765545 0.00935777 0.010105 0.00765545 0.00841256 0.00696774 0.00765545 0.00547361 0.00614607 0.00765545 0.00841256 0.00614607 0.00686462 0.010105 0.0109577 0.00841256 0.00921832 0.0109577 0.0118506 0.00921832 0.0100151 0.00841256 0.00921832 0.00686462 0.00760107 0.00921832 0.0100151 0.00760107 0.00830442 0.0118506 0.012669 0.0100151 0.0107186 0.012669 0.0132861 0.0107186 0.0112398 0.0100151 0.0107186 0.00830442 0.00891267 0.0107186 0.0112398 0.00891267 0.00936147 0.0132861 0.0136153 0.0112398 0.0115154 0.0136153 0.0136245 0.0115154 0.0115183 0.0112398 0.0115154 0.00936147 0.0096057 0.0115154 0.0115183 0.0096057 0.00962443 0.00593815 0.00280791 0.00589504 0.00279832 0.00280791 0 0.00279832 0 0.00589504 0.00279832 0.00554577 0.00265781 0.00279832 0 0.00265781 0 0.00554577 0.00265781 0.00500211 0.00242899 0.00265781 0 0.00242899 0 0.00500211 0.00242899 0.00438686 0.00216113 0.00242899 0 0.00216113 0 0 0.00164782 0 0.00189299 0.00164782 0.00325785 0.00189299 0.00379008 0 0.00189299 0 0.00216113 0.00189299 0.00379008 0.00216113 0.00438686 0.00325785 0.00481252 0.00379008 0.00565888 0.00481252 0.00628682 0.00565888 0.00745765 0.00379008 0.00565888 0.00438686 0.00663451 0.00565888 0.00745765 0.00663451 0.00884896 0.00386055 0.00299131 0.00524085 0.00400601 0.00299131 0.00204876 0.00400601 0.00269937 0.00524085 0.00400601 0.00693067 0.00521291 0.00400601 0.00269937 0.00521291 0.00345378 0.00204876 0.00105002 0.00269937 0.00135652 0.00105002 0 0.00135652 0 0.00269937 0.00135652 0.00345378 0.00170438 0.00135652 0 0.00170438 0 0 0.00170438 0 0.00135652 0.00170438 0.00345378 0.00135652 0.00269937 0 0.00135652 0 0.00105002 0.00135652 0.00269937 0.00105002 0.00204876 0.00345378 0.00521291 0.00269937 0.00400601 0.00521291 0.00693067 0.00400601 0.00524085 0.00269937 0.00400601 0.00204876 0.00299131 0.00400601 0.00524085 0.00299131 0.00386055 0.00884896 0.00663451 0.00745765 0.00565888 0.00663451 0.00438686 0.00565888 0.00379008 0.00745765 0.00565888 0.00628682 0.00481252 0.00565888 0.00379008 0.00481252 0.00325785 0.00438686 0.00216113 0.00379008 0.00189299 0.00216113 0 0.00189299 0 0.00379008 0.00189299 0.00325785 0.00164782 0.00189299 0 0.00164782 0 0 0 0 0.000303405 0 0 0.000303405 0.000483052 0 0.000303405 0 0.000468273 0.000303405 0.000483052 0.000468273 0.000815781 0 0 0.000483052 0.000602354 0 0 0.000602354 0.00068919 0.000483052 0.000602354 0.000815781 0.00107392 0.000602354 0.00068919 0.00107392 0.00127129 0 0.000468273 0 0.000595741 0.000468273 0.000815781 0.000595741 0.00107975 0 0.000595741 0 0.000711549 0.000595741 0.00107975 0.000711549 0.00131787 0.00131787 0.000711549 0.00107975 0.000595741 0.000711549 0 0.000595741 0 0.00107975 0.000595741 0.000815781 0.000468273 0.000595741 0 0.000468273 0 0.00127129 0.00107392 0.00068919 0.000602354 0.00107392 0.000815781 0.000602354 0.000483052 0.00068919 0.000602354 0 0 0.000602354 0.000483052 0 0 0.000815781 0.000468273 0.000483052 0.000303405 0.000468273 0 0.000303405 0 0.000483052 0.000303405 0 0 0.00030