# vtk DataFile Version 3.0
#This file was generated by the deal.II library on 2018/12/12 at 9:49:58
ASCII
DATASET UNSTRUCTURED_GRID

POINTS 26152 double
-0.5 -1 0
-0.375 -1 0
-0.5 -0.875 0
-0.375 -0.875 0
-0.375 -1 0
-0.25 -1 0
-0.375 -0.875 0
-0.25 -0.875 0
0.25 0.875 0
0.375 0.875 0
0.25 1 0
0.375 1 0
0.375 0.875 0
0.5 0.875 0
0.375 1 0
0.5 1 0
-0.5625 -0.125 0
-0.5 -0.125 0
-0.5625 -0.0625 0
-0.5 -0.0625 0
-0.625 -0.0625 0
-0.5625 -0.0625 0
-0.625 0 0
-0.5625 0 0
-0.5625 -0.0625 0
-0.5 -0.0625 0
-0.5625 0 0
-0.5 0 0
-0.5 -0.0625 0
-0.4375 -0.0625 0
-0.5 0 0
-0.4375 0 0
0.4375 -0.0625 0
0.5 -0.0625 0
0.4375 0 0
0.5 0 0
0.5 -0.125 0
0.5625 -0.125 0
0.5 -0.0625 0
0.5625 -0.0625 0
0.5 -0.0625 0
0.5625 -0.0625 0
0.5 0 0
0.5625 0 0
0.5625 -0.0625 0
0.625 -0.0625 0
0.5625 0 0
0.625 0 0
-0.625 0 0
-0.5625 0 0
-0.625 0.0625 0
-0.5625 0.0625 0
-0.5625 0 0
-0.5 0 0
-0.5625 0.0625 0
-0.5 0.0625 0
-0.5625 0.0625 0
-0.5 0.0625 0
-0.5625 0.125 0
-0.5 0.125 0
-0.5 0 0
-0.4375 0 0
-0.5 0.0625 0
-0.4375 0.0625 0
0.4375 0 0
0.5 0 0
0.4375 0.0625 0
0.5 0.0625 0
0.5 0 0
0.5625 0 0
0.5 0.0625 0
0.5625 0.0625 0
0.5625 0 0
0.625 0 0
0.5625 0.0625 0
0.625 0.0625 0
0.5 0.0625 0
0.5625 0.0625 0
0.5 0.125 0
0.5625 0.125 0
0.625 -0.5 0
0.6875 -0.5 0
0.625 -0.4375 0
0.6875 -0.4375 0
0.6875 -0.5 0
0.75 -0.5 0
0.6875 -0.4375 0
0.75 -0.4375 0
0.625 -0.4375 0
0.6875 -0.4375 0
0.625 -0.375 0
0.6875 -0.375 0
0.6875 -0.4375 0
0.75 -0.4375 0
0.6875 -0.375 0
0.75 -0.375 0
-0.75 0.375 0
-0.6875 0.375 0
-0.75 0.4375 0
-0.6875 0.4375 0
-0.6875 0.375 0
-0.625 0.375 0
-0.6875 0.4375 0
-0.625 0.4375 0
-0.75 0.4375 0
-0.6875 0.4375 0
-0.75 0.5 0
-0.6875 0.5 0
-0.6875 0.4375 0
-0.625 0.4375 0
-0.6875 0.5 0
-0.625 0.5 0
-0.5 -0.625 0
-0.4375 -0.625 0
-0.5 -0.5625 0
-0.4375 -0.5625 0
-0.4375 -0.625 0
-0.375 -0.625 0
-0.4375 -0.5625 0
-0.375 -0.5625 0
0.125 -0.625 0
0.1875 -0.625 0
0.125 -0.5625 0
0.1875 -0.5625 0
0.1875 -0.625 0
0.25 -0.625 0
0.1875 -0.5625 0
0.25 -0.5625 0
0.125 -0.5625 0
0.1875 -0.5625 0
0.125 -0.5 0
0.1875 -0.5 0
-0.1875 0.5 0
-0.125 0.5 0
-0.1875 0.5625 0
-0.125 0.5625 0
-0.25 0.5625 0
-0.1875 0.5625 0
-0.25 0.625 0
-0.1875 0.625 0
-0.1875 0.5625 0
-0.125 0.5625 0
-0.1875 0.625 0
-0.125 0.625 0
0.375 0.5625 0
0.4375 0.5625 0
0.375 0.625 0
0.4375 0.625 0
0.4375 0.5625 0
0.5 0.5625 0
0.4375 0.625 0
0.5 0.625 0
-0.75 -0.5 0
-0.6875 -0.5 0
-0.75 -0.4375 0
-0.6875 -0.4375 0
-0.6875 -0.5 0
-0.625 -0.5 0
-0.6875 -0.4375 0
-0.625 -0.4375 0
-0.75 -0.4375 0
-0.6875 -0.4375 0
-0.75 -0.375 0
-0.6875 -0.375 0
-0.6875 -0.4375 0
-0.625 -0.4375 0
-0.6875 -0.375 0
-0.625 -0.375 0
-0.625 -0.5 0
-0.5625 -0.5 0
-0.625 -0.4375 0
-0.5625 -0.4375 0
-0.375 -0.5 0
-0.3125 -0.5 0
-0.375 -0.4375 0
-0.3125 -0.4375 0
0.25 -0.5 0
0.3125 -0.5 0
0.25 -0.4375 0
0.3125 -0.4375 0
0.3125 -0.5 0
0.375 -0.5 0
0.3125 -0.4375 0
0.375 -0.4375 0
0.25 -0.4375 0
0.3125 -0.4375 0
0.25 -0.375 0
0.3125 -0.375 0
0.3125 -0.4375 0
0.375 -0.4375 0
0.3125 -0.375 0
0.375 -0.375 0
0.375 -0.5 0
0.4375 -0.5 0
0.375 -0.4375 0
0.4375 -0.4375 0
-0.4375 0.4375 0
-0.375 0.4375 0
-0.4375 0.5 0
-0.375 0.5 0
-0.375 0.375 0
-0.3125 0.375 0
-0.375 0.4375 0
-0.3125 0.4375 0
-0.3125 0.375 0
-0.25 0.375 0
-0.3125 0.4375 0
-0.25 0.4375 0
-0.375 0.4375 0
-0.3125 0.4375 0
-0.375 0.5 0
-0.3125 0.5 0
-0.3125 0.4375 0
-0.25 0.4375 0
-0.3125 0.5 0
-0.25 0.5 0
0.3125 0.4375 0
0.375 0.4375 0
0.3125 0.5 0
0.375 0.5 0
0.5625 0.4375 0
0.625 0.4375 0
0.5625 0.5 0
0.625 0.5 0
0.625 0.375 0
0.6875 0.375 0
0.625 0.4375 0
0.6875 0.4375 0
0.6875 0.375 0
0.75 0.375 0
0.6875 0.4375 0
0.75 0.4375 0
0.625 0.4375 0
0.6875 0.4375 0
0.625 0.5 0
0.6875 0.5 0
0.6875 0.4375 0
0.75 0.4375 0
0.6875 0.5 0
0.75 0.5 0
0.0625 -0.5 0
0.125 -0.5 0
0.0625 -0.4375 0
0.125 -0.4375 0
0.125 -0.5 0
0.1875 -0.5 0
0.125 -0.4375 0
0.1875 -0.4375 0
0.1875 -0.5 0
0.25 -0.5 0
0.1875 -0.4375 0
0.25 -0.4375 0
0.1875 -0.4375 0
0.25 -0.4375 0
0.1875 -0.375 0
0.25 -0.375 0
-0.25 0.375 0
-0.1875 0.375 0
-0.25 0.4375 0
-0.1875 0.4375 0
-0.25 0.4375 0
-0.1875 0.4375 0
-0.25 0.5 0
-0.1875 0.5 0
-0.1875 0.4375 0
-0.125 0.4375 0
-0.1875 0.5 0
-0.125 0.5 0
-0.125 0.4375 0
-0.0625 0.4375 0
-0.125 0.5 0
-0.0625 0.5 0
-1 -0.375 0
-0.9375 -0.375 0
-1 -0.3125 0
-0.9375 -0.3125 0
-0.9375 -0.375 0
-0.875 -0.375 0
-0.9375 -0.3125 0
-0.875 -0.3125 0
-1 -0.3125 0
-0.9375 -0.3125 0
-1 -0.25 0
-0.9375 -0.25 0
-0.875 -0.375 0
-0.8125 -0.375 0
-0.875 -0.3125 0
-0.8125 -0.3125 0
0.875 -0.375 0
0.9375 -0.375 0
0.875 -0.3125 0
0.9375 -0.3125 0
0.9375 -0.375 0
1 -0.375 0
0.9375 -0.3125 0
1 -0.3125 0
0.9375 -0.3125 0
1 -0.3125 0
0.9375 -0.25 0
1 -0.25 0
-1 0.25 0
-0.9375 0.25 0
-1 0.3125 0
-0.9375 0.3125 0
-1 0.3125 0
-0.9375 0.3125 0
-1 0.375 0
-0.9375 0.375 0
-0.9375 0.3125 0
-0.875 0.3125 0
-0.9375 0.375 0
-0.875 0.375 0
0.8125 0.3125 0
0.875 0.3125 0
0.8125 0.375 0
0.875 0.375 0
0.9375 0.25 0
1 0.25 0
0.9375 0.3125 0
1 0.3125 0
0.875 0.3125 0
0.9375 0.3125 0
0.875 0.375 0
0.9375 0.375 0
0.9375 0.3125 0
1 0.3125 0
0.9375 0.375 0
1 0.375 0
-0.875 -1 0
-0.8125 -1 0
-0.875 -0.9375 0
-0.8125 -0.9375 0
-0.8125 -1 0
-0.75 -1 0
-0.8125 -0.9375 0
-0.75 -0.9375 0
-1 -0.875 0
-0.9375 -0.875 0
-1 -0.8125 0
-0.9375 -0.8125 0
-0.9375 -0.875 0
-0.875 -0.875 0
-0.9375 -0.8125 0
-0.875 -0.8125 0
-1 -0.8125 0
-0.9375 -0.8125 0
-1 -0.75 0
-0.9375 -0.75 0
-0.9375 -0.8125 0
-0.875 -0.8125 0
-0.9375 -0.75 0
-0.875 -0.75 0
0.875 0.75 0
0.9375 0.75 0
0.875 0.8125 0
0.9375 0.8125 0
0.9375 0.75 0
1 0.75 0
0.9375 0.8125 0
1 0.8125 0
0.875 0.8125 0
0.9375 0.8125 0
0.875 0.875 0
0.9375 0.875 0
0.9375 0.8125 0
1 0.8125 0
0.9375 0.875 0
1 0.875 0
0.75 0.9375 0
0.8125 0.9375 0
0.75 1 0
0.8125 1 0
0.8125 0.9375 0
0.875 0.9375 0
0.8125 1 0
0.875 1 0
-0.5 -0.6875 0
-0.4375 -0.6875 0
-0.5 -0.625 0
-0.4375 -0.625 0
-0.4375 -0.6875 0
-0.375 -0.6875 0
-0.4375 -0.625 0
-0.375 -0.625 0
-0.375 -0.6875 0
-0.3125 -0.6875 0
-0.375 -0.625 0
-0.3125 -0.625 0
-0.3125 -0.6875 0
-0.25 -0.6875 0
-0.3125 -0.625 0
-0.25 -0.625 0
-0.375 -0.625 0
-0.3125 -0.625 0
-0.375 -0.5625 0
-0.3125 -0.5625 0
-0.3125 -0.625 0
-0.25 -0.625 0
-0.3125 -0.5625 0
-0.25 -0.5625 0
-0.375 -0.5625 0
-0.3125 -0.5625 0
-0.375 -0.5 0
-0.3125 -0.5 0
-0.3125 -0.5625 0
-0.25 -0.5625 0
-0.3125 -0.5 0
-0.25 -0.5 0
-0.25 -0.6875 0
-0.1875 -0.6875 0
-0.25 -0.625 0
-0.1875 -0.625 0
-0.1875 -0.6875 0
-0.125 -0.6875 0
-0.1875 -0.625 0
-0.125 -0.625 0
-0.125 -0.6875 0
-0.0625 -0.6875 0
-0.125 -0.625 0
-0.0625 -0.625 0
-0.0625 -0.6875 0
0 -0.6875 0
-0.0625 -0.625 0
0 -0.625 0
-0.25 -0.625 0
-0.1875 -0.625 0
-0.25 -0.5625 0
-0.1875 -0.5625 0
-0.1875 -0.625 0
-0.125 -0.625 0
-0.1875 -0.5625 0
-0.125 -0.5625 0
-0.25 -0.5625 0
-0.1875 -0.5625 0
-0.25 -0.5 0
-0.1875 -0.5 0
-0.1875 -0.5625 0
-0.125 -0.5625 0
-0.1875 -0.5 0
-0.125 -0.5 0
-0.125 -0.625 0
-0.0625 -0.625 0
-0.125 -0.5625 0
-0.0625 -0.5625 0
-0.0625 -0.625 0
0 -0.625 0
-0.0625 -0.5625 0
0 -0.5625 0
-0.125 -0.5625 0
-0.0625 -0.5625 0
-0.125 -0.5 0
-0.0625 -0.5 0
-1 -0.5 0
-0.9375 -0.5 0
-1 -0.4375 0
-0.9375 -0.4375 0
-1 -0.4375 0
-0.9375 -0.4375 0
-1 -0.375 0
-0.9375 -0.375 0
-0.9375 -0.4375 0
-0.875 -0.4375 0
-0.9375 -0.375 0
-0.875 -0.375 0
-0.8125 -0.5 0
-0.75 -0.5 0
-0.8125 -0.4375 0
-0.75 -0.4375 0
-0.875 -0.4375 0
-0.8125 -0.4375 0
-0.875 -0.375 0
-0.8125 -0.375 0
-0.8125 -0.4375 0
-0.75 -0.4375 0
-0.8125 -0.375 0
-0.75 -0.375 0
0 -0.6875 0
0.0625 -0.6875 0
0 -0.625 0
0.0625 -0.625 0
0.0625 -0.6875 0
0.125 -0.6875 0
0.0625 -0.625 0
0.125 -0.625 0
0.1875 -0.75 0
0.25 -0.75 0
0.1875 -0.6875 0
0.25 -0.6875 0
0.125 -0.6875 0
0.1875 -0.6875 0
0.125 -0.625 0
0.1875 -0.625 0
0.1875 -0.6875 0
0.25 -0.6875 0
0.1875 -0.625 0
0.25 -0.625 0
0 -0.625 0
0.0625 -0.625 0
0 -0.5625 0
0.0625 -0.5625 0
0.0625 -0.625 0
0.125 -0.625 0
0.0625 -0.5625 0
0.125 -0.5625 0
0 -0.5625 0
0.0625 -0.5625 0
0 -0.5 0
0.0625 -0.5 0
0.0625 -0.5625 0
0.125 -0.5625 0
0.0625 -0.5 0
0.125 -0.5 0
0.75 -0.5 0
0.8125 -0.5 0
0.75 -0.4375 0
0.8125 -0.4375 0
0.8125 -0.5 0
0.875 -0.5 0
0.8125 -0.4375 0
0.875 -0.4375 0
0.75 -0.4375 0
0.8125 -0.4375 0
0.75 -0.375 0
0.8125 -0.375 0
0.8125 -0.4375 0
0.875 -0.4375 0
0.8125 -0.375 0
0.875 -0.375 0
0.9375 -0.5 0
1 -0.5 0
0.9375 -0.4375 0
1 -0.4375 0
0.875 -0.4375 0
0.9375 -0.4375 0
0.875 -0.375 0
0.9375 -0.375 0
0.9375 -0.4375 0
1 -0.4375 0
0.9375 -0.375 0
1 -0.375 0
-1 0.375 0
-0.9375 0.375 0
-1 0.4375 0
-0.9375 0.4375 0
-0.9375 0.375 0
-0.875 0.375 0
-0.9375 0.4375 0
-0.875 0.4375 0
-1 0.4375 0
-0.9375 0.4375 0
-1 0.5 0
-0.9375 0.5 0
-0.875 0.375 0
-0.8125 0.375 0
-0.875 0.4375 0
-0.8125 0.4375 0
-0.8125 0.375 0
-0.75 0.375 0
-0.8125 0.4375 0
-0.75 0.4375 0
-0.875 0.4375 0
-0.8125 0.4375 0
-0.875 0.5 0
-0.8125 0.5 0
-0.8125 0.4375 0
-0.75 0.4375 0
-0.8125 0.5 0
-0.75 0.5 0
-0.125 0.5 0
-0.0625 0.5 0
-0.125 0.5625 0
-0.0625 0.5625 0
-0.0625 0.5 0
0 0.5 0
-0.0625 0.5625 0
0 0.5625 0
-0.125 0.5625 0
-0.0625 0.5625 0
-0.125 0.625 0
-0.0625 0.625 0
-0.0625 0.5625 0
0 0.5625 0
-0.0625 0.625 0
0 0.625 0
-0.25 0.625 0
-0.1875 0.625 0
-0.25 0.6875 0
-0.1875 0.6875 0
-0.1875 0.625 0
-0.125 0.625 0
-0.1875 0.6875 0
-0.125 0.6875 0
-0.25 0.6875 0
-0.1875 0.6875 0
-0.25 0.75 0
-0.1875 0.75 0
-0.125 0.625 0
-0.0625 0.625 0
-0.125 0.6875 0
-0.0625 0.6875 0
-0.0625 0.625 0
0 0.625 0
-0.0625 0.6875 0
0 0.6875 0
0.75 0.375 0
0.8125 0.375 0
0.75 0.4375 0
0.8125 0.4375 0
0.8125 0.375 0
0.875 0.375 0
0.8125 0.4375 0
0.875 0.4375 0
0.75 0.4375 0
0.8125 0.4375 0
0.75 0.5 0
0.8125 0.5 0
0.875 0.375 0
0.9375 0.375 0
0.875 0.4375 0
0.9375 0.4375 0
0.9375 0.375 0
1 0.375 0
0.9375 0.4375 0
1 0.4375 0
0.9375 0.4375 0
1 0.4375 0
0.9375 0.5 0
1 0.5 0
0.0625 0.5 0
0.125 0.5 0
0.0625 0.5625 0
0.125 0.5625 0
0 0.5625 0
0.0625 0.5625 0
0 0.625 0
0.0625 0.625 0
0.0625 0.5625 0
0.125 0.5625 0
0.0625 0.625 0
0.125 0.625 0
0.125 0.5 0
0.1875 0.5 0
0.125 0.5625 0
0.1875 0.5625 0
0.1875 0.5 0
0.25 0.5 0
0.1875 0.5625 0
0.25 0.5625 0
0.125 0.5625 0
0.1875 0.5625 0
0.125 0.625 0
0.1875 0.625 0
0.1875 0.5625 0
0.25 0.5625 0
0.1875 0.625 0
0.25 0.625 0
0 0.625 0
0.0625 0.625 0
0 0.6875 0
0.0625 0.6875 0
0.0625 0.625 0
0.125 0.625 0
0.0625 0.6875 0
[...]
POINT_DATA 26152
SCALARS x_displacement double 1
LOOKUP_TABLE default
0 0 0.00176734 0.00187785 0 0 0.00187785 0.00185381 0.00185381 0.00187785 0 0 0.00187785 0.00176734 0 0 0.0216976 0.0234897 0.0234957 0.0252514 0.0207637 0.0234957 0.0210727 0.0237322 0.0234957 0.0252514 0.0237322 0.0254067 0.0252514 0.0260392 0.0254067 0.0261033 0.0245925 0.0240157 0.0261033 0.0254067 0.0211354 0.0196935 0.0240157 0.0224516 0.0240157 0.0224516 0.0254067 0.0237322 0.0224516 0.0198954 0.0237322 0.0210727 0.0210727 0.0237322 0.0198954 0.0224516 0.0237322 0.0254067 0.0224516 0.0240157 0.0224516 0.0240157 0.0196935 0.0211354 0.0254067 0.0261033 0.0240157 0.0245925 0.0261033 0.0254067 0.0260392 0.0252514 0.0254067 0.0237322 0.0252514 0.0234957 0.0237322 0.0210727 0.0234957 0.0207637 0.0252514 0.0234957 0.0234897 0.0216976 0.00264582 0.00229774 0.00380874 0.00331397 0.00229774 0.00193334 0.00331397 0.00277286 0.00380874 0.00331397 0.00533772 0.00464243 0.00331397 0.00277286 0.00464243 0.00385912 0.00385912 0.00464243 0.00277286 0.00331397 0.00464243 0.00533772 0.00331397 0.00380874 0.00277286 0.00331397 0.00193334 0.00229774 0.00331397 0.00380874 0.00229774 0.00264582 0.00545833 0.00585151 0.00658147 0.00709447 0.00585151 0.00616095 0.00709447 0.00751094 0.00424708 0.00367097 0.0054721 0.00481851 0.00367097 0.00312102 0.00481851 0.00419815 0.0054721 0.00481851 0.0068596 0.00614107 0.00614107 0.0068596 0.00481851 0.0054721 0.00419815 0.00481851 0.00312102 0.00367097 0.00481851 0.0054721 0.00367097 0.00424708 0.00751094 0.00709447 0.00616095 0.00585151 0.00709447 0.00658147 0.00585151 0.00545833 0.00452605 0.00546561 0.00532118 0.00645396 0.00546561 0.00633176 0.00645396 0.0074978 0.00532118 0.00645396 0.00628403 0.00765544 0.00645396 0.0074978 0.00765544 0.00891256 0.00633176 0.00712891 0.0074978 0.0084568 0.00903556 0.00942153 0.010772 0.0112541 0.00546911 0.00485606 0.00696213 0.00634038 0.00485606 0.00430498 0.00634038 0.0057711 0.00696213 0.00634038 0.00871238 0.00814705 0.00634038 0.0057711 0.00814705 0.00761202 0.00430498 0.00381562 0.0057711 0.00524334 0.00524334 0.0057711 0.00381562 0.00430498 0.00761202 0.00814705 0.0057711 0.00634038 0.00814705 0.00871238 0.00634038 0.00696213 0.0057711 0.00634038 0.00430498 0.00485606 0.00634038 0.00696213 0.00485606 0.00546911 0.0112541 0.010772 0.00942153 0.00903556 0.0084568 0.0074978 0.00712891 0.00633176 0.00891256 0.00765544 0.0074978 0.00645396 0.00765544 0.00628403 0.00645396 0.00532118 0.0074978 0.00645396 0.00633176 0.00546561 0.00645396 0.00532118 0.00546561 0.00452605 0.00759533 0.0068596 0.00921167 0.00840612 0.0068596 0.00614107 0.00840612 0.00764932 0.00614107 0.00546911 0.00764932 0.00696213 0.00764932 0.00696213 0.00935042 0.00871238 0.00871238 0.00935042 0.00696213 0.00764932 0.00696213 0.00764932 0.00546911 0.00614107 0.00764932 0.00840612 0.00614107 0.0068596 0.00840612 0.00921167 0.0068596 0.00759533 0 0.00164687 0 0.00189221 0.00164687 0.00325569 0.00189221 0.00378788 0 0.00189221 0 0.00216013 0.00325569 0.00480977 0.00378788 0.00565565 0.00204719 0.0010491 0.00269767 0.00135594 0.0010491 0 0.00135594 0 0.00135594 0 0.00170361 0 0 0.00170361 0 0.00135594 0 0.00135594 0 0.0010491 0.00135594 0.00269767 0.0010491 0.00204719 0.00565565 0.00378788 0.00480977 0.00325569 0.00216013 0 0.00189221 0 0.00378788 0.00189221 0.00325569 0.00164687 0.00189221 0 0.00164687 0 0 0 0.000482609 0.000602015 0 0 0.000602015 0.000689122 0 0.00046826 0 0.000595168 0.00046826 0.00081511 0.000595168 0.00107889 0 0.000595168 0 0.000710963 0.000595168 0.00107889 0.000710963 0.00131778 0.00131778 0.000710963 0.00107889 0.000595168 0.000710963 0 0.000595168 0 0.00107889 0.000595168 0.00081511 0.00046826 0.000595168 0 0.00046826 0 0.000689122 0.000602015 0 0 0.000602015 0.000482609 0 0 0.00444724 0.00473525 0.00545833 0.00585151 0.00473525 0.00495282 0.00585151 0.00616095 0.00495282 0.00508375 0.00616095 0.00636457 0.00508375 0.00511244 0.00636457 0.00644071 0.00616095 0.00636457 0.00751094 0.00780093 0.00636457 0.00644071 0.00780093 0.00793512 0.00751094 0.00780093 0.00903556 0.00942153 0.00780093 0.00793512 0.00942153 0.00961963 0.00511244 0.00502815 0.00644071 0.00637419 0.00502815 0.00482872 0.00637419 0.00616149 0.00482872 0.00452246 0.00616149 0.00581353 0.00452246 0.00412781 0.00581353 0.005355 0.00644071 0.00637419 0.00793512 0.00789211 0.00637419 0.00616149 0.00789211 0.00766647 0.00793512 0.00789211 0.00961963 0.0096006 0.00789211 0.00766647 0.0096006 0.00935662 0.00616149 0.00581353 0.00766647 0.00727288 0.00581353 0.005355 0.00727288 0.00674457 0.00766647 0.00727288 0.00935662 0.00890742 0 0.00124793 0 0.00143213 0 0.00143213 0 0.00164687 0.00143213 0.00280052 0.00164687 0.00325569 0.00350986 0.00452605 0.00410055 0.00532118 0.00280052 0.00410055 0.00325569 0.00480977 0.00410055 0.00532118 0.00480977 0.00628403 0.00412781 0.00367077 0.005355 0.00482022 0.00367077 0.00318101 0.00482022 0.00424708 0.00185908 0.00147124 0.00268775 0.00221695 0.00318101 0.00268775 0.00424708 0.00367097 0.00268775 0.00221695 0.00367097 0.00312102 0.005355 0.00482022 0.00674457 0.00612824 0.00482022 0.00424708 0.00612824 0.0054721 0.00674457 0.00612824 0.0082993 0.00759533 0.00612824 0.0054721 0.00759533 0.0068596 0.00193334 0.00153441 0.00277286 0.00217351 0.00153441 0.00108797 0.00217351 0.00151316 0.00277286 0.00217351 0.00385912 0.00298941 0.00217351 0.00151316 0.00298941 0.00204719 0.000582241 0 0.000791373 0 0.00151316 0.000791373 0.00204719 0.0010491 0.000791373 0 0.0010491 0 0 0.0010491 0 0.000791373 0.0010491 0.00204719 0.000791373 0.00151316 0 0.000791373 0 0.000582241 0.00204719 0.00298941 0.00151316 0.00217351 0.00298941 0.00385912 0.00217351 0.00277286 0.00151316 0.00217351 0.00108797 0.00153441 0.00217351 0.00277286 0.00153441 0.00193334 0.0068596 0.00759533 0.0054721 0.00612824 0.00759533 0.0082993 0.00612824 0.00674457 0.0054721 0.00612824 0.00424708 0.00482022 0.00612824 0.00674457 0.00482022 0.005355 0.00312102 0.00367097 0.00221695 0.00268775 0.00367097 0.00424708 0.00268775 0.00318101 0.00221695 0.00268775 0.00147124 0.00185908 0.00424708 0.00482022 0.00318101 0.00367077 0.00482022 0.005355 0.00367077 0.00412781 0.00628403 0.00480977 0.00532118 0.00410055 0.00480977 0.00325569 0.00410055 0.00280052 0.00532118 0.00410055 0.00452605 0.00350986 0.00325569 0.00164687 0.00280052 0.00143213 0.00164687 0 0.00143213 0 0.00143213 0 0.00124793 0 0.00890742 0.00935662 0.00727288 0.00766647 0.00674457 0.00727288 0.005355 0.00581353 0.00727288 0.00766647 0.00581353 0.00616149 0.00935662 0.0096006 0.00766647 0.00789211 0.0096006 0.00961963 0.00789211 0.00793512 0.00766647 0.00789211 0.00616149 0.00637419 0.00789211 0.00793512 0.00637419 0.00644071 0.005355 0.00581353 0.00412781 0.00452246 0.00581353 0.00616149 0.00452246 0.00482872 0.00616149 0.00637419 0.00482872 0.00502815 0.00637419 0.00644071 0.00502815 0.00511244 0.00961963 0.00942153 0.00793512 0.00780093 0.00942153 0.00903556 0.00780093 0.00751094 0.00793512 0.00780093 0.00644071 0.00636457 0.00780093 0.00751094 0.00636457 0.00616095 0.00644071 0.00636457 0.00511244 0.00508375 0.00636457 0.00616095 0.00508375 0.00495282 0.00616095 0.00585151 0.00495282 0.00473525 0.00585151 0.00545833 0.00473525 0.00444724 0.00081511 0.00107255 0.00107889 0.00146853 0.00107255 0.00127113 0.00146853 0.00178642 0.00107889 0.00146853 0.00131778 0.00183275 0.003012 0.00385751 0.00350986 0.00452605 0.00410179 0.00444724 0.0049987 0.00545833 0.00385751 0.00463294 0.00452605 0.00546561 0.00463294 0.00534383 0.00546561 0.00633176 0.0049987 0.00545833 0.00599397 0.00658147 0.00534383 0.00599397 0.00633176 0.00712891 0.00599397 0.00658147 0.00712891 0.00785596 0.000605644 0.000380131 0.00112149 0.000823551 0.000380131 0.000205884 0.000823551 0.000585592 0.000205884 8.54919e-05 0.000585592 0.000410301 0.00147124 0.00112149 0.00221695 0.00178903 0.00112149 0.000823551 0.00178903 0.00141877 0.00221695 0.00178903 0.00312102 0.00261874 0.00178903 0.00141877 0.00261874 0.00217845 0.000823551 0.000585592 0.00141877 0.00111473 0.000585592 0.000410301 0.00111473 0.000879111 0.00141877 0.00111473 0.00217845 0.00180784 0.00111473 0.000879111 0.00180784 0.00150799 0.00312102 0.00261874 0.00419815 0.00363067 0.00261874 0.00217845 0.00363067 0.00312731 0.00419815 0.00363067 0.00546911 0.00485606 0.00363067 0.00312731 0.00485606 0.00430498 0.00217845 0.00180784 0.00312731 0.00269305 0.00180784 0.00150799 0.00269305 0.002327 0.00312731 0.00269305 0.00430498 0.00381562 0.00269305 0.002327 0.00381562 0.00338387 8.54919e-05 1.68265e-05 0.000410301 0.000294612 0.000410301 0.000294612 0.000879111 0.00070768 0.000294612 0.000230188 0.00070768 0.000590161 0.000879111 0.00070768 0.00150799 0.00127302 0.00070768 0.000590161 0.00127302 0.00109046 0.000230188 0.000203972 0.000590161 0.000511358 0.000590161 0.000511358 0.00109046 0.000942715 0.00150799 0.00127302 0.002327 0.00202127 0.00127302 0.00109046 0.00202127 0.00176076 0.002327 0.00202127 0.00338387 0.00299995 0.00202127 0.00176076 0.00299995 0.00264582 0.00109046 0.000942715 0.00176076 0.00152516 0.000942715 0.000809599 0.00152516 0.00129261 0.00176076 0.00152516 0.00264582 0.00229774 0.00152516 0.00129261 0.00229774 0.00193334 0.000809599 0.000670046 0.00129261 0.00104262 0.00129261 0.00104262 0.00193334 0.00153441 0.00153441 0.00193334 0.00104262 0.00129261 0.00104262 0.00129261 0.000670046 0.000809599 0.00193334 0.00229774 0.00129261 0.00152516 0.00229774 0.00264582 0.00152516 0.00176076 0.00129261 0.00152516 0.000809599 0.000942715 0.00152516 0.00176076 0.000942715 0.00109046 0.00264582 0.00299995 0.00176076 0.00202127 0.00299995 0.00338387 0.00202127 0.002327 0.00176076 0.00202127 0.00109046 0.00127302 0.00202127 0.002327 0.00127302 0.00150799 0.000942715 0.00109046 0.000511358 0.000590161 0.000511358 0.000590161 0.000203972 0.000230188 0.00109046 0.00127302 0.000590161 0.00070768 0.00127302 0.00150799 0.00070768 0.000879111 0.000590161 0.00070768 0.000230188 0.000294612 0.00070768 0.000879111 0.000294612 0.000410301 0.000294612 0.000410301 1.68265e-05 8.54919e-05 0.00338387 0.00381562 0.002327 0.00269305 0.00381562 0.00430498 0.00269305 0.00312731 0.002327 0.00269305 0.00150799 0.00180784 0.00269305 0.00312731 0.00180784 0.00217845 0.00430498 0.00485606 0.00312731 0.00363067 0.00485606 0.00546911 0.00363067 0.00419815 0.00312731 0.00363067 0.00217845 0.00261874 0.00363067 0.00419815 0.00261874 0.00312102 0.00150799 0.00180784 0.000879111 0.00111473 0.00180784 0.00217845 0.00111473 0.00141877 0.000879111 0.00111473 0.000410301 0.000585592 0.00111473 0.00141877 0.000585592 0.000823551 0.00217845 0.00261874 0.00141877 0.00178903 0.00261874 0.00312102 0.00178903 0.00221695 0.00141877 0.00178903 0.000823551 0.00112149 0.00178903 0.00221695 0.00112149 0.00147124 0.000410301 0.000585592 8.54919e-05 0.000205884 0.000585592 0.000823551 0.000205884 0.000380131 0.000823551 0.00112149 0.000380131 0.000605644 0.00785596 0.00712891 0.00658147 0.00599397 0.00712891 0.00633176 0.00599397 0.00534383 0.00658147 0.00599397 0.00545833 0.0049987 0.00633176 0.00546561 0.00534383 0.00463294 0.00546561 0.00452605 0.00463294 0.00385751 0.00545833 0.0049987 0.00444724 0.00410179 0.00452605 0.00350986 0.00385751 0.003012 0.00183275 0.00131778 0.00146853 0.00107889 0.00178642 0.00146853 0.00127113 0.00107255 0.00146853 0.00107889 0.00107255 0.00081511 0 0 1.26833e-05 2.52596e-05 3.53834e-05 4.17785e-05 8.73574e-05 7.09963e-05 4.17785e-05 0 7.09963e-05 0 7.09963e-05 0 0.000119276 0 0 0.000119276 0 7.09963e-05 0 7.09963e-05 0 4.17785e-05 7.09963e-05 8.73574e-05 4.17785e-05 3.53834e-05 2.52596e-05 1.26833e-05 0 0 0 0 0.000689122 0.000757196 0 0 0.000757196 0.000813159 0.000689122 0.000757196 0.00127113 0.00143118 0.000757196 0.000813159 0.00143118 0.00156421 0 0 0.000813159 0.000859931 0 0 0.000859931 0.000897931 0.000813159 0.000859931 0.00156421 0.00167606 0.000859931 0.000897931 0.00167606 0.00176734 0.00127113 0.00143118 0.00178642 0.00205179 0.00143118 0.00156421 0.00205179 0.00227747 0.00178642 0.00205179 0.00227201 0.00265112 0.00205179 0.00227747 0.00265112 0.00298143 0.00156421 0.00167606 0.00227747 0.00247015 0.00167606 0.00176734 0.00247015 0.00263104 0.00227747 0.00247015 0.00298143 0.00326915 0.00247015 0.00263104 0.00326915 0.0035149 0 0.000710963 0 0.000827241 0.000710963 0.00131778 0.000827241 0.00155567 0 0.000827241 0 0.000951376 0.000827241 0.00155567 0.000951376 0.00180876 0.00131778 0.00183275 0.00155567 0.00219595 0.00183275 0.00227201 0.00219595 0.00276025 0.00155567 0.00219595 0.00180876 0.00258174 0.00219595 0.00276025 0.00258174 0.00327937 0 0.000951376 0 0.00108959 0.000951376 0.00180876 0.00108959 0.00209096 0 0.00108959 0 0.00124793 0.00108959 0.00209096 0.00124793 0.00241669 0.00227201 0.00265112 0.00276025 0.00326042 0.00265112 0.00298143 0.00326042 0.00370585 0.00276025 0.00326042 0.00327937 0.00391032 0.00326042 0.00370585 0.00391032 0.00448197 0.00176734 0.00183644 0.00263104 0.00275674 0.00183644 0.00187785 0.00275674 0.00284028 0.00263104 0.00275674 0.0035149 0.00371359 0.00275674 0.00284028 0.00371359 0.00385573 0.00187785 0.0018857 0.00284028 0.00287308 0.0018857 0.00185381 0.00287308 0.00284708 0.00284028 0.00287308 0.00385573 0.00392951 0.00287308 0.00284708 0.00392951 0.0039237 0 0 0.000916283 0.000871595 0 0 0.000871595 0.000804212 0.000916283 0.000871595 0.00185381 0.00178012 0.000871595 0.000804212 0.00178012 0.00166173 0 0 0.000804212 0.000715513 0 0 0.000715513 0.000609147 0.000804212 0.000715513 0.00166173 0.00150266 0.000715513 0.000609147 0.00150266 0.00130978 0.00185381 0.00178012 0.00284708 0.00275687 0.00178012 0.00166173 0.00275687 0.00260149 0.00284708 0.00275687 0.0039237 0.00383072 0.00275687 0.00260149 0.00383072 0.00364925 0.00166173 0.00150266 0.00260149 0.00238556 0.00150266 0.00130978 0.00238556 0.00211926 0.00260149 0.00238556 0.00364925 0.0033856 0.00238556 0.00211926 0.0033856 0.0030536 0 0 0.000609147 0.000490569 0 0 0.000490569 0.000366475 0.000609147 0.000490569 0.00130978 0.00109319 0.000490569 0.000366475 0.00109319 0.000865156 0 0 0.000366475 0.000244085 0 0 0.000244085 0.000130426 0.000366475 0.000244085 0.000865156 0.000638775 0.000244085 0.000130426 0.000638775 0.00042666 0.00130978 0.00109319 0.00211926 0.00181731 0.00109319 0.000865156 0.00181731 0.00149721 0.00211926 0.00181731 0.0030536 0.00267302 0.00181731 0.00149721 0.00267302 0.00226697 0.000865156 0.000638775 0.00149721 0.00117738 0.000638775 0.00042666 0.00117738 0.00087525 0.00149721 0.00117738 0.00226697 0.00185908 0.00117738 0.00087525 0.00185908 0.00147124 0 0 0.000130426 3.17068e-05 0 0 3.17068e-05 -4.72034e-05 0.000130426 3.17068e-05 0.00042666 0.00023981 3.17068e-05 -4.72034e-05 0.00023981 8.68081e-05 0 0 -4.72034e-05 -0.000103121 0 0 -0.000103121 -0.000134773 -4.72034e-05 -0.000103121 8.68081e-05 -2.68255e-05 -0.000103121 -0.000134773 -2.68255e-05 -9.89762e-05 0 0 -0.000134773 -0.000142884 0 0 -0.000142884 -0.000130142 -0.000134773 -0.000142884 -9.89762e-05 -0.000131057 -0.000142884 -0.000130142 -0.000131057 -0.00012793 0 0 -0.000130142 -0.000101083 0 0 -0.000101083 -6.19705e-05 -0.000130142 -0.000101083 -0.00012793 -9.76094e-05 -0.000101083 -6.19705e-05 -9.76094e-05 -5.09621e-05 -0.00012793 -9.76094e-05 -6.83099e-06 3.76171e-06 -9.76094e-05 -5.09621e-05 3.76171e-06 3.45244e-05 -6.83099e-06 3.76171e-06 0.000230188 0.000203972 3.76171e-06 3.45244e-05 0.000203972 0.000199432 0.000199432 0.000197521 0.000452778 0.000393984 0.000197521 0.000177864 0.000393984 0.000313805 0.000452778 0.000393984 0.000809599 0.000670046 0.000393984 0.000313805 0.000670046 0.00050317 0.000177864 0.000119276 0.000313805 0.000190224 0.000119276 0 0.000190224 0 0.000313805 0.000190224 0.00050317 0.000287685 0.000190224 0 0.000287685 0 0.00050317 0.000287685 0.000756585 0.000416417 0.000287685 0 0.000416417 0 0.000756585 0.000416417 0.00108797 0.000582241 0.000416417 0 0.000582241 0 0 0.000582241 0 0.000416417 0.000582241 0.00108797 0.000416417 0.000756585 0 0.000416417 0 0.000287685 0.000416417 0.000756585 0.000287685 0.00050317 0 0.000287685 0 0.000190224 0.000287685 0.00050317 0.000190224 0.000313805 0 0.000190224 0 0.000119276 0.000190224 0.000313805 0.000119276 0.000177864 0.00050317 0.000670046 0.000313805 0.000393984 0.000670046 0.000809599 0.000393984 0.000452778 0.000313805 0.000393984 0.000177864 0.000197521 0.000393984 0.000452778 0.000197521 0.000199432 0.000199432 0.000203972 3.45244e-05 3.76171e-06 0.000203972 0.000230188 3.76171e-06 -6.83099e-06 3.45244e-05 3.76171e-06 -5.09621e-05 -9.76094e-05 3.76171e-06 -6.83099e-06 -9.76094e-05 -0.00012793 -5.09621e-05 -9.76094e-05 -6.19705e-05 -0.000101083 -9.76094e-05 -0.00012793 -0.000101083 -0.000130142 -6.19705e-05 -0.000101083 0 0 -0.000101083 -0.000130142 0 0 -0.00012793 -0.000131057 -0.000130142 -0.000142884 -0.000131057 -9.89762e-05 -0.000142884 -0.000134773 -0.000130142 -0.000142884 0 0 -0.000142884 -0.000134773 0 0 -9.89762e-05 -2.68255e-05 -0.000134773 -0.000103121 -2.68255e-05 8.68081e-05 -0.000103121 -4.72034e-05 -0.000134773 -0.000103121 0 0 -0.000103121 -4.72034e-05 0 0 8.68081e-05 0.00023981 -4.72034e-05 3.17068e-05 0.00023981 0.00042666 3.17068e-05 0.000130426 -4.72034e-05 3.17068e-05 0 0 3.17068e-05 0.000130426 0 0 0.00147124 0.00185908 0.00087525 0.00117738 0.00185908 0.00226697 0.00117738 0.00149721 0.00087525 0.00117738 0.00042666 0.000638775 0.00117738 0.00149721 0.000638775 0.000865156 0.00226697 0.00267302 0.00149721 0.00181731 0.00267302 0.0030536 0.00181731 0.00211926 0.00149721 0.00181731 0.000865156 0.00109319 0.00181731 0.00211926 0.00109319 0.00130978 0.00042666 0.000638775 0.000130426 0.000244085 0.000638775 0.000865156 0.000244085 0.000366475 0.000130426 0.000244085 0 0 0.000244085 0.000366475 0 0 0.000865156 0.00109319 0.000366475 0.000490569 0.00109319 0.00130978 0.000490569 0.000609147 0.000366475 0.000490569 0 0 0.000490569 0.000609147 0 0 0.0030536 0.0033856 0.00211926 0.00238556 0.0033856 0.00364925 0.00238556 0.00260149 0.00211926 0.00238556 0.00130978 0.00150266 0.00238556 0.00260149 0.00150266 0.00166173 0.00364925 0.00383072 0.00260149 0.00275687 0.00383072 0.0039237 0.00275687 0.00284708 0.00260149 0.00275687 0.00166173 0.00178012 0.00275687 0.00284708 0.00178012 0.00185381 0.00130978 0.00150266 0.000609147 0.000715513 0.00150266 0.00166173 0.000715513 0.000804212 0.000609147 0.000715513 0 0 0.000715513 0.000804212 0 0 0.00166173 0.00178012 0.000804212 0.000871595 0.00178012 0.00185381 0.000871595 0.000916283 0.000804212 0.000871595 0 0 0.000871595 0.000916283 0 0 0.0039237 0.00392951 0.00284708 0.00287308 0.00392951 0.00385573 0.00287308 0.00284028 0.00284708 0.00287308 0.00185381 0.0018857 0.00287308 0.00284028 0.0018857 0.00187785 0.00385573 0.00371359 0.00284028 0.00275674 0.00371359 0.0035149 0.00275674 0.00263104 0.00284028 0.00275674 0.00187785 0.00183644 0.00275674 0.00263104 0.00183644 0.00176734 0.00448197 0.00391032 0.00370585 0.00326042 0.00391032 0.00327937 0.00326042 0.00276025 0.00370585 0.00326042 0.00298143 0.00265112 0.00326042 0.00276025 0.00265112 0.00227201 0.00241669 0.00124793 0.00209096 0.00108959 0.00124793 0 0.00108959 0 0.00209096 0.00108959 0.00180876 0.000951376 0.00108959 0 0.000951376 0 0.00327937 0.00258174 0.00276025 0.00219595 0.00258174 0.00180876 0.00219595 0.00155567 0.00276025 0.00219595 0.00227201 0.00183275 0.00219595 0.00155567 0.00183275 0.00131778 0.00180876 0.000951376 0.00155567 0.000827241 0.000951376 0 0.000827241 0 0.00155567 0.000827241 0.00131778 0.000710963 0.000827241 0 0.000710963 0 0.0035149 0.00326915 0.00263104 0.00247015 0.00326915 0.00298143 0.00247015 0.00227747 0.00263104 0.00247015 0.00176734 0.00167606 0.00247015 0.00227747 0.00167606 0.00156421 0.00298143 0.00265112 0.00227747 0.00205179 0.00265112 0.00227201 0.00205179 0.00178642 0.00227747 0.00205179 0.00156421 0.00143118 0.00205179 0.00178642 0.00143118 0.00127113 0.00176734 0.00167606 0.000897931 0.000859931 0.00167606 0.00156421 0.000859931 0.000813159 0.000897931 0.000859931 0 0 0.000859931 0.000813159 0 0 0.00156421 0.00143118 0.000813159 0.00