# vtk DataFile Version 3.0
#This file was generated by the deal.II library on 2018/12/12 at 9:34:16
ASCII
DATASET UNSTRUCTURED_GRID

POINTS 65536 double
-1 -1 0
-0.984375 -1 0
-1 -0.984375 0
-0.984375 -0.984375 0
-0.984375 -1 0
-0.96875 -1 0
-0.984375 -0.984375 0
-0.96875 -0.984375 0
-1 -0.984375 0
-0.984375 -0.984375 0
-1 -0.96875 0
-0.984375 -0.96875 0
-0.984375 -0.984375 0
-0.96875 -0.984375 0
-0.984375 -0.96875 0
-0.96875 -0.96875 0
-0.96875 -1 0
-0.953125 -1 0
-0.96875 -0.984375 0
-0.953125 -0.984375 0
-0.953125 -1 0
-0.9375 -1 0
-0.953125 -0.984375 0
-0.9375 -0.984375 0
-0.96875 -0.984375 0
-0.953125 -0.984375 0
-0.96875 -0.96875 0
-0.953125 -0.96875 0
-0.953125 -0.984375 0
-0.9375 -0.984375 0
-0.953125 -0.96875 0
-0.9375 -0.96875 0
-1 -0.96875 0
-0.984375 -0.96875 0
-1 -0.953125 0
-0.984375 -0.953125 0
-0.984375 -0.96875 0
-0.96875 -0.96875 0
-0.984375 -0.953125 0
-0.96875 -0.953125 0
-1 -0.953125 0
-0.984375 -0.953125 0
-1 -0.9375 0
-0.984375 -0.9375 0
-0.984375 -0.953125 0
-0.96875 -0.953125 0
-0.984375 -0.9375 0
-0.96875 -0.9375 0
-0.96875 -0.96875 0
-0.953125 -0.96875 0
-0.96875 -0.953125 0
-0.953125 -0.953125 0
-0.953125 -0.96875 0
-0.9375 -0.96875 0
-0.953125 -0.953125 0
-0.9375 -0.953125 0
-0.96875 -0.953125 0
-0.953125 -0.953125 0
-0.96875 -0.9375 0
-0.953125 -0.9375 0
-0.953125 -0.953125 0
-0.9375 -0.953125 0
-0.953125 -0.9375 0
-0.9375 -0.9375 0
-0.9375 -1 0
-0.921875 -1 0
-0.9375 -0.984375 0
-0.921875 -0.984375 0
-0.921875 -1 0
-0.90625 -1 0
-0.921875 -0.984375 0
-0.90625 -0.984375 0
-0.9375 -0.984375 0
-0.921875 -0.984375 0
-0.9375 -0.96875 0
-0.921875 -0.96875 0
-0.921875 -0.984375 0
-0.90625 -0.984375 0
-0.921875 -0.96875 0
-0.90625 -0.96875 0
-0.90625 -1 0
-0.890625 -1 0
-0.90625 -0.984375 0
-0.890625 -0.984375 0
-0.890625 -1 0
-0.875 -1 0
-0.890625 -0.984375 0
-0.875 -0.984375 0
-0.90625 -0.984375 0
-0.890625 -0.984375 0
-0.90625 -0.96875 0
-0.890625 -0.96875 0
-0.890625 -0.984375 0
-0.875 -0.984375 0
-0.890625 -0.96875 0
-0.875 -0.96875 0
-0.9375 -0.96875 0
-0.921875 -0.96875 0
-0.9375 -0.953125 0
-0.921875 -0.953125 0
-0.921875 -0.96875 0
-0.90625 -0.96875 0
-0.921875 -0.953125 0
-0.90625 -0.953125 0
-0.9375 -0.953125 0
-0.921875 -0.953125 0
-0.9375 -0.9375 0
-0.921875 -0.9375 0
-0.921875 -0.953125 0
-0.90625 -0.953125 0
-0.921875 -0.9375 0
-0.90625 -0.9375 0
-0.90625 -0.96875 0
-0.890625 -0.96875 0
-0.90625 -0.953125 0
-0.890625 -0.953125 0
-0.890625 -0.96875 0
-0.875 -0.96875 0
-0.890625 -0.953125 0
-0.875 -0.953125 0
-0.90625 -0.953125 0
-0.890625 -0.953125 0
-0.90625 -0.9375 0
-0.890625 -0.9375 0
-0.890625 -0.953125 0
-0.875 -0.953125 0
-0.890625 -0.9375 0
-0.875 -0.9375 0
-1 -0.9375 0
-0.984375 -0.9375 0
-1 -0.921875 0
-0.984375 -0.921875 0
-0.984375 -0.9375 0
-0.96875 -0.9375 0
-0.984375 -0.921875 0
-0.96875 -0.921875 0
-1 -0.921875 0
-0.984375 -0.921875 0
-1 -0.90625 0
-0.984375 -0.90625 0
-0.984375 -0.921875 0
-0.96875 -0.921875 0
-0.984375 -0.90625 0
-0.96875 -0.90625 0
-0.96875 -0.9375 0
-0.953125 -0.9375 0
-0.96875 -0.921875 0
-0.953125 -0.921875 0
-0.953125 -0.9375 0
-0.9375 -0.9375 0
-0.953125 -0.921875 0
-0.9375 -0.921875 0
-0.96875 -0.921875 0
-0.953125 -0.921875 0
-0.96875 -0.90625 0
-0.953125 -0.90625 0
-0.953125 -0.921875 0
-0.9375 -0.921875 0
-0.953125 -0.90625 0
-0.9375 -0.90625 0
-1 -0.90625 0
-0.984375 -0.90625 0
-1 -0.890625 0
-0.984375 -0.890625 0
-0.984375 -0.90625 0
-0.96875 -0.90625 0
-0.984375 -0.890625 0
-0.96875 -0.890625 0
-1 -0.890625 0
-0.984375 -0.890625 0
-1 -0.875 0
-0.984375 -0.875 0
-0.984375 -0.890625 0
-0.96875 -0.890625 0
-0.984375 -0.875 0
-0.96875 -0.875 0
-0.96875 -0.90625 0
-0.953125 -0.90625 0
-0.96875 -0.890625 0
-0.953125 -0.890625 0
-0.953125 -0.90625 0
-0.9375 -0.90625 0
-0.953125 -0.890625 0
-0.9375 -0.890625 0
-0.96875 -0.890625 0
-0.953125 -0.890625 0
-0.96875 -0.875 0
-0.953125 -0.875 0
-0.953125 -0.890625 0
-0.9375 -0.890625 0
-0.953125 -0.875 0
-0.9375 -0.875 0
-0.9375 -0.9375 0
-0.921875 -0.9375 0
-0.9375 -0.921875 0
-0.921875 -0.921875 0
-0.921875 -0.9375 0
-0.90625 -0.9375 0
-0.921875 -0.921875 0
-0.90625 -0.921875 0
-0.9375 -0.921875 0
-0.921875 -0.921875 0
-0.9375 -0.90625 0
-0.921875 -0.90625 0
-0.921875 -0.921875 0
-0.90625 -0.921875 0
-0.921875 -0.90625 0
-0.90625 -0.90625 0
-0.90625 -0.9375 0
-0.890625 -0.9375 0
-0.90625 -0.921875 0
-0.890625 -0.921875 0
-0.890625 -0.9375 0
-0.875 -0.9375 0
-0.890625 -0.921875 0
-0.875 -0.921875 0
-0.90625 -0.921875 0
-0.890625 -0.921875 0
-0.90625 -0.90625 0
-0.890625 -0.90625 0
-0.890625 -0.921875 0
-0.875 -0.921875 0
-0.890625 -0.90625 0
-0.875 -0.90625 0
-0.9375 -0.90625 0
-0.921875 -0.90625 0
-0.9375 -0.890625 0
-0.921875 -0.890625 0
-0.921875 -0.90625 0
-0.90625 -0.90625 0
-0.921875 -0.890625 0
-0.90625 -0.890625 0
-0.9375 -0.890625 0
-0.921875 -0.890625 0
-0.9375 -0.875 0
-0.921875 -0.875 0
-0.921875 -0.890625 0
-0.90625 -0.890625 0
-0.921875 -0.875 0
-0.90625 -0.875 0
-0.90625 -0.90625 0
-0.890625 -0.90625 0
-0.90625 -0.890625 0
-0.890625 -0.890625 0
-0.890625 -0.90625 0
-0.875 -0.90625 0
-0.890625 -0.890625 0
-0.875 -0.890625 0
-0.90625 -0.890625 0
-0.890625 -0.890625 0
-0.90625 -0.875 0
-0.890625 -0.875 0
-0.890625 -0.890625 0
-0.875 -0.890625 0
-0.890625 -0.875 0
-0.875 -0.875 0
-0.875 -1 0
-0.859375 -1 0
-0.875 -0.984375 0
-0.859375 -0.984375 0
-0.859375 -1 0
-0.84375 -1 0
-0.859375 -0.984375 0
-0.84375 -0.984375 0
-0.875 -0.984375 0
-0.859375 -0.984375 0
-0.875 -0.96875 0
-0.859375 -0.96875 0
-0.859375 -0.984375 0
-0.84375 -0.984375 0
-0.859375 -0.96875 0
-0.84375 -0.96875 0
-0.84375 -1 0
-0.828125 -1 0
-0.84375 -0.984375 0
-0.828125 -0.984375 0
-0.828125 -1 0
-0.8125 -1 0
-0.828125 -0.984375 0
-0.8125 -0.984375 0
-0.84375 -0.984375 0
-0.828125 -0.984375 0
-0.84375 -0.96875 0
-0.828125 -0.96875 0
-0.828125 -0.984375 0
-0.8125 -0.984375 0
-0.828125 -0.96875 0
-0.8125 -0.96875 0
-0.875 -0.96875 0
-0.859375 -0.96875 0
-0.875 -0.953125 0
-0.859375 -0.953125 0
-0.859375 -0.96875 0
-0.84375 -0.96875 0
-0.859375 -0.953125 0
-0.84375 -0.953125 0
-0.875 -0.953125 0
-0.859375 -0.953125 0
-0.875 -0.9375 0
-0.859375 -0.9375 0
-0.859375 -0.953125 0
-0.84375 -0.953125 0
-0.859375 -0.9375 0
-0.84375 -0.9375 0
-0.84375 -0.96875 0
-0.828125 -0.96875 0
-0.84375 -0.953125 0
-0.828125 -0.953125 0
-0.828125 -0.96875 0
-0.8125 -0.96875 0
-0.828125 -0.953125 0
-0.8125 -0.953125 0
-0.84375 -0.953125 0
-0.828125 -0.953125 0
-0.84375 -0.9375 0
-0.828125 -0.9375 0
-0.828125 -0.953125 0
-0.8125 -0.953125 0
-0.828125 -0.9375 0
-0.8125 -0.9375 0
-0.8125 -1 0
-0.796875 -1 0
-0.8125 -0.984375 0
-0.796875 -0.984375 0
-0.796875 -1 0
-0.78125 -1 0
-0.796875 -0.984375 0
-0.78125 -0.984375 0
-0.8125 -0.984375 0
-0.796875 -0.984375 0
-0.8125 -0.96875 0
-0.796875 -0.96875 0
-0.796875 -0.984375 0
-0.78125 -0.984375 0
-0.796875 -0.96875 0
-0.78125 -0.96875 0
-0.78125 -1 0
-0.765625 -1 0
-0.78125 -0.984375 0
-0.765625 -0.984375 0
-0.765625 -1 0
-0.75 -1 0
-0.765625 -0.984375 0
-0.75 -0.984375 0
-0.78125 -0.984375 0
-0.765625 -0.984375 0
-0.78125 -0.96875 0
-0.765625 -0.96875 0
-0.765625 -0.984375 0
-0.75 -0.984375 0
-0.765625 -0.96875 0
-0.75 -0.96875 0
-0.8125 -0.96875 0
-0.796875 -0.96875 0
-0.8125 -0.953125 0
-0.796875 -0.953125 0
-0.796875 -0.96875 0
-0.78125 -0.96875 0
-0.796875 -0.953125 0
-0.78125 -0.953125 0
-0.8125 -0.953125 0
-0.796875 -0.953125 0
-0.8125 -0.9375 0
-0.796875 -0.9375 0
-0.796875 -0.953125 0
-0.78125 -0.953125 0
-0.796875 -0.9375 0
-0.78125 -0.9375 0
-0.78125 -0.96875 0
-0.765625 -0.96875 0
-0.78125 -0.953125 0
-0.765625 -0.953125 0
-0.765625 -0.96875 0
-0.75 -0.96875 0
-0.765625 -0.953125 0
-0.75 -0.953125 0
-0.78125 -0.953125 0
-0.765625 -0.953125 0
-0.78125 -0.9375 0
-0.765625 -0.9375 0
-0.765625 -0.953125 0
-0.75 -0.953125 0
-0.765625 -0.9375 0
-0.75 -0.9375 0
-0.875 -0.9375 0
-0.859375 -0.9375 0
-0.875 -0.921875 0
-0.859375 -0.921875 0
-0.859375 -0.9375 0
-0.84375 -0.9375 0
-0.859375 -0.921875 0
-0.84375 -0.921875 0
-0.875 -0.921875 0
-0.859375 -0.921875 0
-0.875 -0.90625 0
-0.859375 -0.90625 0
-0.859375 -0.921875 0
-0.84375 -0.921875 0
-0.859375 -0.90625 0
-0.84375 -0.90625 0
-0.84375 -0.9375 0
-0.828125 -0.9375 0
-0.84375 -0.921875 0
-0.828125 -0.921875 0
-0.828125 -0.9375 0
-0.8125 -0.9375 0
-0.828125 -0.921875 0
-0.8125 -0.921875 0
-0.84375 -0.921875 0
-0.828125 -0.921875 0
-0.84375 -0.90625 0
-0.828125 -0.90625 0
-0.828125 -0.921875 0
-0.8125 -0.921875 0
-0.828125 -0.90625 0
-0.8125 -0.90625 0
-0.875 -0.90625 0
-0.859375 -0.90625 0
-0.875 -0.890625 0
-0.859375 -0.890625 0
-0.859375 -0.90625 0
-0.84375 -0.90625 0
-0.859375 -0.890625 0
-0.84375 -0.890625 0
-0.875 -0.890625 0
-0.859375 -0.890625 0
-0.875 -0.875 0
-0.859375 -0.875 0
-0.859375 -0.890625 0
-0.84375 -0.890625 0
-0.859375 -0.875 0
-0.84375 -0.875 0
-0.84375 -0.90625 0
-0.828125 -0.90625 0
-0.84375 -0.890625 0
-0.828125 -0.890625 0
-0.828125 -0.90625 0
-0.8125 -0.90625 0
-0.828125 -0.890625 0
-0.8125 -0.890625 0
-0.84375 -0.890625 0
-0.828125 -0.890625 0
-0.84375 -0.875 0
-0.828125 -0.875 0
-0.828125 -0.890625 0
-0.8125 -0.890625 0
-0.828125 -0.875 0
-0.8125 -0.875 0
-0.8125 -0.9375 0
-0.796875 -0.9375 0
-0.8125 -0.921875 0
-0.796875 -0.921875 0
-0.796875 -0.9375 0
-0.78125 -0.9375 0
-0.796875 -0.921875 0
-0.78125 -0.921875 0
-0.8125 -0.921875 0
-0.796875 -0.921875 0
-0.8125 -0.90625 0
-0.796875 -0.90625 0
-0.796875 -0.921875 0
-0.78125 -0.921875 0
-0.796875 -0.90625 0
-0.78125 -0.90625 0
-0.78125 -0.9375 0
-0.765625 -0.9375 0
-0.78125 -0.921875 0
-0.765625 -0.921875 0
-0.765625 -0.9375 0
-0.75 -0.9375 0
-0.765625 -0.921875 0
-0.75 -0.921875 0
-0.78125 -0.921875 0
-0.765625 -0.921875 0
-0.78125 -0.90625 0
-0.765625 -0.90625 0
-0.765625 -0.921875 0
-0.75 -0.921875 0
-0.765625 -0.90625 0
-0.75 -0.90625 0
-0.8125 -0.90625 0
-0.796875 -0.90625 0
-0.8125 -0.890625 0
-0.796875 -0.890625 0
-0.796875 -0.90625 0
-0.78125 -0.90625 0
-0.796875 -0.890625 0
-0.78125 -0.890625 0
-0.8125 -0.890625 0
-0.796875 -0.890625 0
-0.8125 -0.875 0
-0.796875 -0.875 0
-0.796875 -0.890625 0
-0.78125 -0.890625 0
-0.796875 -0.875 0
-0.78125 -0.875 0
[...]
POINT_DATA 65536
SCALARS solution double 1
LOOKUP_TABLE default
2.18381e-05 2.18381e-05 2.184e-05 2.18421e-05 2.18381e-05 2.18348e-05 2.18421e-05 2.18446e-05 2.184e-05 2.18421e-05 2.18416e-05 2.18491e-05 2.18421e-05 2.18446e-05 2.18491e-05 2.18667e-05 2.18348e-05 2.1819e-05 2.18446e-05 2.18382e-05 2.1819e-05 2.17752e-05 2.18382e-05 2.18076e-05 2.18446e-05 2.18382e-05 2.18667e-05 2.1885e-05 2.18382e-05 2.18076e-05 2.1885e-05 2.18888e-05 2.18416e-05 2.18491e-05 2.18331e-05 2.18493e-05 2.18491e-05 2.18667e-05 2.18493e-05 2.18913e-05 2.18331e-05 2.18493e-05 2.17988e-05 2.18271e-05 2.18493e-05 2.18913e-05 2.18271e-05 2.19028e-05 2.18667e-05 2.1885e-05 2.18913e-05 2.19498e-05 2.1885e-05 2.18888e-05 2.19498e-05 2.20093e-05 2.18913e-05 2.19498e-05 2.19028e-05 2.20168e-05 2.19498e-05 2.20093e-05 2.20168e-05 2.21536e-05 2.17752e-05 2.16824e-05 2.18076e-05 2.17314e-05 2.16824e-05 2.15133e-05 2.17314e-05 2.15825e-05 2.18076e-05 2.17314e-05 2.18888e-05 2.18565e-05 2.17314e-05 2.15825e-05 2.18565e-05 2.17607e-05 2.15133e-05 2.12354e-05 2.15825e-05 2.1328e-05 2.12354e-05 2.08106e-05 2.1328e-05 2.09297e-05 2.15825e-05 2.1328e-05 2.17607e-05 2.15681e-05 2.1328e-05 2.09297e-05 2.15681e-05 2.12396e-05 2.18888e-05 2.18565e-05 2.20093e-05 2.20484e-05 2.18565e-05 2.17607e-05 2.20484e-05 2.20392e-05 2.20093e-05 2.20484e-05 2.21536e-05 2.22919e-05 2.20484e-05 2.20392e-05 2.22919e-05 2.24034e-05 2.17607e-05 2.15681e-05 2.20392e-05 2.19477e-05 2.15681e-05 2.12396e-05 2.19477e-05 2.17336e-05 2.20392e-05 2.19477e-05 2.24034e-05 2.24534e-05 2.19477e-05 2.17336e-05 2.24534e-05 2.24003e-05 2.17988e-05 2.18271e-05 2.17171e-05 2.17608e-05 2.18271e-05 2.19028e-05 2.17608e-05 2.18794e-05 2.17171e-05 2.17608e-05 2.15607e-05 2.16228e-05 2.17608e-05 2.18794e-05 2.16228e-05 2.17934e-05 2.19028e-05 2.20168e-05 2.18794e-05 2.20641e-05 2.20168e-05 2.21536e-05 2.20641e-05 2.22999e-05 2.18794e-05 2.20641e-05 2.17934e-05 2.20638e-05 2.20641e-05 2.22999e-05 2.20638e-05 2.24196e-05 2.15607e-05 2.16228e-05 2.12963e-05 2.138e-05 2.16228e-05 2.17934e-05 2.138e-05 2.16109e-05 2.12963e-05 2.138e-05 2.08855e-05 2.09934e-05 2.138e-05 2.16109e-05 2.09934e-05 2.12924e-05 2.17934e-05 2.20638e-05 2.16109e-05 2.19813e-05 2.20638e-05 2.24196e-05 2.19813e-05 2.24779e-05 2.16109e-05 2.19813e-05 2.12924e-05 2.1776e-05 2.19813e-05 2.24779e-05 2.1776e-05 2.24327e-05 2.21536e-05 2.22919e-05 2.22999e-05 2.25653e-05 2.22919e-05 2.24034e-05 2.25653e-05 2.28324e-05 2.22999e-05 2.25653e-05 2.24196e-05 2.28404e-05 2.25653e-05 2.28324e-05 2.28404e-05 2.32984e-05 2.24034e-05 2.24534e-05 2.28324e-05 2.30658e-05 2.24534e-05 2.24003e-05 2.30658e-05 2.32226e-05 2.28324e-05 2.30658e-05 2.32984e-05 2.37584e-05 2.30658e-05 2.32226e-05 2.37584e-05 2.41769e-05 2.24196e-05 2.28404e-05 2.24779e-05 2.30816e-05 2.28404e-05 2.32984e-05 2.30816e-05 2.3766e-05 2.24779e-05 2.30816e-05 2.24327e-05 2.32457e-05 2.30816e-05 2.3766e-05 2.32457e-05 2.41914e-05 2.32984e-05 2.37584e-05 2.3766e-05 2.4497e-05 2.37584e-05 2.41769e-05 2.4497e-05 2.52315e-05 2.3766e-05 2.4497e-05 2.41914e-05 2.52383e-05 2.4497e-05 2.52315e-05 2.52383e-05 2.63457e-05 2.08106e-05 2.01962e-05 2.09297e-05 2.03442e-05 2.01962e-05 1.93455e-05 2.03442e-05 1.95243e-05 2.09297e-05 2.03442e-05 2.12396e-05 2.07307e-05 2.03442e-05 1.95243e-05 2.07307e-05 1.99923e-05 1.93455e-05 1.8209e-05 1.95243e-05 1.84196e-05 1.8209e-05 1.67361e-05 1.84196e-05 1.69782e-05 1.95243e-05 1.84196e-05 1.99923e-05 1.89718e-05 1.84196e-05 1.69782e-05 1.89718e-05 1.76142e-05 2.12396e-05 2.07307e-05 2.17336e-05 2.13507e-05 2.07307e-05 1.99923e-05 2.13507e-05 2.07471e-05 2.17336e-05 2.13507e-05 2.24003e-05 2.21955e-05 2.13507e-05 2.07471e-05 2.21955e-05 2.1784e-05 1.99923e-05 1.89718e-05 2.07471e-05 1.98665e-05 1.89718e-05 1.76142e-05 1.98665e-05 1.86492e-05 2.07471e-05 1.98665e-05 2.1784e-05 2.11045e-05 1.98665e-05 1.86492e-05 2.11045e-05 2.0091e-05 1.67361e-05 1.48764e-05 1.69782e-05 1.51487e-05 1.48764e-05 1.25832e-05 1.51487e-05 1.28825e-05 1.69782e-05 1.51487e-05 1.76142e-05 1.58645e-05 1.51487e-05 1.28825e-05 1.58645e-05 1.36697e-05 1.25832e-05 9.81523e-06 1.28825e-05 1.01369e-05 9.81523e-06 6.54073e-06 1.01369e-05 6.87828e-06 1.28825e-05 1.01369e-05 1.36697e-05 1.09821e-05 1.01369e-05 6.87828e-06 1.09821e-05 7.76309e-06 1.76142e-05 1.58645e-05 1.86492e-05 1.70342e-05 1.58645e-05 1.36697e-05 1.70342e-05 1.49614e-05 1.86492e-05 1.70342e-05 2.0091e-05 1.86748e-05 1.70342e-05 1.49614e-05 1.86748e-05 1.67862e-05 1.36697e-05 1.09821e-05 1.49614e-05 1.23753e-05 1.09821e-05 7.76309e-06 1.23753e-05 9.22839e-06 1.49614e-05 1.23753e-05 1.67862e-05 1.43588e-05 1.23753e-05 9.22839e-06 1.43588e-05 1.13338e-05 2.24003e-05 2.21955e-05 2.32226e-05 2.3252e-05 2.21955e-05 2.1784e-05 2.3252e-05 2.30953e-05 2.32226e-05 2.3252e-05 2.41769e-05 2.45011e-05 2.3252e-05 2.30953e-05 2.45011e-05 2.46689e-05 2.1784e-05 2.11045e-05 2.30953e-05 2.26857e-05 2.11045e-05 2.0091e-05 2.26857e-05 2.19503e-05 2.30953e-05 2.26857e-05 2.46689e-05 2.46086e-05 2.26857e-05 2.19503e-05 2.46086e-05 2.42402e-05 2.41769e-05 2.45011e-05 2.52315e-05 2.59162e-05 2.45011e-05 2.46689e-05 2.59162e-05 2.64871e-05 2.52315e-05 2.59162e-05 2.63457e-05 2.74625e-05 2.59162e-05 2.64871e-05 2.74625e-05 2.85259e-05 2.46689e-05 2.46086e-05 2.64871e-05 2.68693e-05 2.46086e-05 2.42402e-05 2.68693e-05 2.69776e-05 2.64871e-05 2.68693e-05 2.85259e-05 2.94621e-05 2.68693e-05 2.69776e-05 2.94621e-05 3.01872e-05 2.0091e-05 1.86748e-05 2.19503e-05 2.08108e-05 1.86748e-05 1.67862e-05 2.08108e-05 1.91867e-05 2.19503e-05 2.08108e-05 2.42402e-05 2.34761e-05 2.08108e-05 1.91867e-05 2.34761e-05 2.22254e-05 1.67862e-05 1.43588e-05 1.91867e-05 1.69991e-05 1.43588e-05 1.13338e-05 1.69991e-05 1.41758e-05 1.91867e-05 1.69991e-05 2.22254e-05 2.03976e-05 1.69991e-05 1.41758e-05 2.03976e-05 1.79089e-05 2.42402e-05 2.34761e-05 2.69776e-05 2.67189e-05 2.34761e-05 2.22254e-05 2.67189e-05 2.59958e-05 2.69776e-05 2.67189e-05 3.01872e-05 3.06111e-05 2.67189e-05 2.59958e-05 3.06111e-05 3.06427e-05 2.22254e-05 2.03976e-05 2.59958e-05 2.47127e-05 2.03976e-05 1.79089e-05 2.47127e-05 2.27837e-05 2.59958e-05 2.47127e-05 3.06427e-05 3.01995e-05 2.47127e-05 2.27837e-05 3.01995e-05 2.92185e-05 2.08855e-05 2.09934e-05 2.02851e-05 2.04195e-05 2.09934e-05 2.12924e-05 2.04195e-05 2.07932e-05 2.02851e-05 2.04195e-05 1.94477e-05 1.96105e-05 2.04195e-05 2.07932e-05 1.96105e-05 2.00637e-05 2.12924e-05 2.1776e-05 2.07932e-05 2.14013e-05 2.1776e-05 2.24327e-05 2.14013e-05 2.22352e-05 2.07932e-05 2.14013e-05 2.00637e-05 2.08051e-05 2.14013e-05 2.22352e-05 2.08051e-05 2.18299e-05 1.94477e-05 1.96105e-05 1.83234e-05 1.85153e-05 1.96105e-05 2.00637e-05 1.85153e-05 1.90508e-05 1.83234e-05 1.85153e-05 1.68606e-05 1.70816e-05 1.85153e-05 1.90508e-05 1.70816e-05 1.7699e-05 2.00637e-05 2.08051e-05 1.90508e-05 1.99306e-05 2.08051e-05 2.18299e-05 1.99306e-05 2.11554e-05 1.90508e-05 1.99306e-05 1.7699e-05 1.87177e-05 1.99306e-05 2.11554e-05 1.87177e-05 2.01454e-05 2.24327e-05 2.32457e-05 2.22352e-05 2.32817e-05 2.32457e-05 2.41914e-05 2.32817e-05 2.45217e-05 2.22352e-05 2.32817e-05 2.18299e-05 2.31304e-05 2.32817e-05 2.45217e-05 2.31304e-05 2.46945e-05 2.41914e-05 2.52383e-05 2.45217e-05 2.59288e-05 2.52383e-05 2.63457e-05 2.59288e-05 2.74682e-05 2.45217e-05 2.59288e-05 2.46945e-05 2.65045e-05 2.59288e-05 2.74682e-05 2.65045e-05 2.85362e-05 2.18299e-05 2.31304e-05 2.11554e-05 2.27252e-05 2.31304e-05 2.46945e-05 2.27252e-05 2.46381e-05 2.11554e-05 2.27252e-05 2.01454e-05 2.19925e-05 2.27252e-05 2.46381e-05 2.19925e-05 2.4272e-05 2.46945e-05 2.65045e-05 2.46381e-05 2.68902e-05 2.65045e-05 2.85362e-05 2.68902e-05 2.94758e-05 2.46381e-05 2.68902e-05 2.4272e-05 2.70007e-05 2.68902e-05 2.94758e-05 2.70007e-05 3.02031e-05 1.68606e-05 1.70816e-05 1.50085e-05 1.52572e-05 1.70816e-05 1.7699e-05 1.52572e-05 1.59527e-05 1.50085e-05 1.52572e-05 1.27192e-05 1.29931e-05 1.52572e-05 1.59527e-05 1.29931e-05 1.37586e-05 1.7699e-05 1.87177e-05 1.59527e-05 1.7105e-05 1.87177e-05 2.01454e-05 1.7105e-05 1.87306e-05 1.59527e-05 1.7105e-05 1.37586e-05 1.5032e-05 1.7105e-05 1.87306e-05 1.5032e-05 1.68413e-05 1.27192e-05 1.29931e-05 9.95108e-06 1.02458e-05 1.29931e-05 1.37586e-05 1.02458e-05 1.10685e-05 9.95108e-06 1.02458e-05 6.67145e-06 6.98129e-06 1.02458e-05 1.10685e-05 6.98129e-06 7.84321e-06 1.37586e-05 1.5032e-05 1.10685e-05 1.24428e-05 1.5032e-05 1.68413e-05 1.24428e-05 1.44107e-05 1.10685e-05 1.24428e-05 7.84321e-06 9.28969e-06 1.24428e-05 1.44107e-05 9.28969e-06 1.13797e-05 2.01454e-05 2.19925e-05 1.87306e-05 2.0854e-05 2.19925e-05 2.4272e-05 2.0854e-05 2.35087e-05 1.87306e-05 2.0854e-05 1.68413e-05 1.92289e-05 2.0854e-05 2.35087e-05 1.92289e-05 2.2257e-05 2.4272e-05 2.70007e-05 2.35087e-05 2.67427e-05 2.70007e-05 3.02031e-05 2.67427e-05 3.06277e-05 2.35087e-05 2.67427e-05 2.2257e-05 2.60187e-05 2.67427e-05 3.06277e-05 2.60187e-05 3.06588e-05 1.68413e-05 1.92289e-05 1.44107e-05 1.70381e-05 1.92289e-05 2.2257e-05 1.70381e-05 2.04263e-05 1.44107e-05 1.70381e-05 1.13797e-05 1.42095e-05 1.70381e-05 2.04263e-05 1.42095e-05 1.79327e-05 2.2257e-05 2.60187e-05 2.04263e-05 2.47332e-05 2.60187e-05 3.06588e-05 2.47332e-05 3.02137e-05 2.04263e-05 2.47332e-05 1.79327e-05 2.28002e-05 2.47332e-05 3.02137e-05 2.28002e-05 2.92297e-05 2.63457e-05 2.74625e-05 2.74682e-05 2.90949e-05 2.74625e-05 2.85259e-05 2.90949e-05 3.07541e-05 2.74682e-05 2.90949e-05 2.85362e-05 3.07587e-05 2.90949e-05 3.07541e-05 3.07587e-05 3.31356e-05 2.85259e-05 2.94621e-05 3.07541e-05 3.23818e-05 2.94621e-05 3.01872e-05 3.23818e-05 3.39087e-05 3.07541e-05 3.23818e-05 3.31356e-05 3.56299e-05 3.23818e-05 3.39087e-05 3.56299e-05 3.82123e-05 2.85362e-05 3.07587e-05 2.94758e-05 3.23897e-05 3.07587e-05 3.31356e-05 3.23897e-05 3.56333e-05 2.94758e-05 3.23897e-05 3.02031e-05 3.39188e-05 3.23897e-05 3.56333e-05 3.39188e-05 3.82179e-05 3.31356e-05 3.56299e-05 3.56333e-05 3.92259e-05 3.56299e-05 3.82123e-05 3.92259e-05 4.32249e-05 3.56333e-05 3.92259e-05 3.82179e-05 4.32272e-05 3.92259e-05 4.32249e-05 4.32272e-05 4.91715e-05 3.01872e-05 3.06111e-05 3.39087e-05 3.52669e-05 3.06111e-05 3.06427e-05 3.52669e-05 3.64002e-05 3.39087e-05 3.52669e-05 3.82123e-05 4.08756e-05 3.52669e-05 3.64002e-05 4.08756e-05 4.36556e-05 3.06427e-05 3.01995e-05 3.64002e-05 3.72796e-05 3.01995e-05 2.92185e-05 3.72796e-05 3.79207e-05 3.64002e-05 3.72796e-05 4.36556e-05 4.66581e-05 3.72796e-05 3.79207e-05 4.66581e-05 5.00903e-05 3.82123e-05 4.08756e-05 4.32249e-05 4.77552e-05 4.08756e-05 4.36556e-05 4.77552e-05 5.30512e-05 4.32249e-05 4.77552e-05 4.91715e-05 5.64343e-05 4.77552e-05 5.30512e-05 5.64343e-05 6.56388e-05 4.36556e-05 4.66581e-05 5.30512e-05 5.9508e-05 4.66581e-05 5.00903e-05 5.9508e-05 6.77379e-05 5.30512e-05 5.9508e-05 6.56388e-05 7.77461e-05 5.9508e-05 6.77379e-05 7.77461e-05 9.41581e-05 3.02031e-05 3.39188e-05 3.06277e-05 3.52779e-05 3.39188e-05 3.82179e-05 3.52779e-05 4.08825e-05 3.06277e-05 3.52779e-05 3.06588e-05 3.64112e-05 3.52779e-05 4.08825e-05 3.64112e-05 4.36628e-05 3.82179e-05 4.32272e-05 4.08825e-05 4.7759e-05 4.32272e-05 4.91715e-05 4.7759e-05 5.6436e-05 4.08825e-05 4.7759e-05 4.36628e-05 5.3056e-05 4.7759e-05 5.6436e-05 5.3056e-05 6.56421e-05 3.06588e-05 3.64112e-05 3.02137e-05 3.72894e-05 3.64112e-05 4.36628e-05 3.72894e-05 4.66652e-05 3.02137e-05 3.72894e-05 2.92297e-05 3.79287e-05 3.72894e-05 4.66652e-05 3.79287e-05 5.00971e-05 4.36628e-05 5.3056e-05 4.66652e-05 5.95138e-05 5.3056e-05 6.56421e-05 5.95138e-05 7.77517e-05 4.66652e-05 5.95138e-05 5.00971e-05 6.77455e-05 5.95138e-05 7.77517e-05 6.77455e-05 9.41681e-05 4.91715e-05 5.64343e-05 5.6436e-05 6.77692e-05 5.64343e-05 6.56388e-05 6.77692e-05 8.3096e-05 5.6436e-05 6.77692e-05 6.56421e-05 8.30981e-05 6.77692e-05 8.3096e-05 8.30981e-05 0.000108008 6.56388e-05 7.77461e-05 8.3096e-05 0.000104418 7.77461e-05 9.41581e-05 0.000104418 0.000134587 8.3096e-05 0.000104418 0.000108008 0.000144193 0.000104418 0.000134587 0.000144193 0.000197051 6.56421e-05 8.30981e-05 7.77517e-05 0.000104423 8.30981e-05 0.000108008 0.000104423 0.000144198 7.77517e-05 0.000104423 9.41681e-05 0.000134601 0.000104423 0.000144198 0.000134601 0.000197066 0.000108008 0.000144193 0.000144198 0.00020395 0.000144193 0.000197051 0.00020395 0.000293349 0.000144198 0.00020395 0.000197066 0.000293361 0.00020395 0.000293349 0.000293361 0.000440053 6.54073e-06 2.74069e-06 6.87828e-06 3.08603e-06 2.74069e-06 -1.58737e-06 3.08603e-06 -1.24379e-06 6.87828e-06 3.08603e-06 7.76309e-06 3.98663e-06 3.08603e-06 -1.24379e-06 3.98663e-06 -3.56036e-07 -1.58737e-06 -6.4258e-06 -1.24379e-06 -6.09455e-06 -6.4258e-06 -1.17336e-05 -6.09455e-06 -1.14257e-05 -1.24379e-06 -6.09455e-06 -3.56036e-07 -5.25229e-06 -6.09455e-06 -1.14257e-05 -5.25229e-06 -1.06643e-05 7.76309e-06 3.98663e-06 9.22839e-06 5.48608e-06 3.98663e-06 -3.56036e-07 5.48608e-06 1.13143e-06 9.22839e-06 5.48608e-06 1.13338e-05 7.66471e-06 5.48608e-06 1.13143e-06 7.66471e-06 3.3239e-06 -3.56036e-07 -5.25229e-06 1.13143e-06 -3.82975e-06 -5.25229e-06 -1.06643e-05 -3.82975e-06 -9.36417e-06 1.13143e-06 -3.82975e-06 3.3239e-06 -1.69171e-06 -3.82975e-06 -9.36417e-06 -1.69171e-06 -7.35454e-06 -1.17336e-05 -1.74439e-05 -1.14257e-05 -1.71703e-05 -1.74439e-05 -2.34628e-05 -1.71703e-05 -2.32334e-05 -1.14257e-05 -1.71703e-05 -1.06643e-05 -1.65257e-05 -1.71703e-05 -2.32334e-05 -1.65257e-05 -2.27404e-05 -2.34628e-05 -2.96695e-05 -2.32334e-05 -2.94925e-05 -2.96695e-05 -3.59184e-05 -2.94925e-05 -3.57997e-05 -2.32334e-05 -2.94925e-05 -2.27404e-05 -2.91819e-05 -2.94925e-05 -3.57997e-05 -2.91819e-05 -3.56959e-05 -1.06643e-05 -1.65257e-05 -9.36417e-06 -1.54072e-05 -1.65257e-05 -2.27404e-05 -1.54072e-05 -2.18604e-05 -9.36417e-06 -1.54072e-05 -7.35454e-06 -1.36015e-05 -1.54072e-05 -2.18604e-05 -1.36015e-05 -2.03309e-05 -2.27404e-05 -2.91819e-05 -2.18604e-05 -2.85912e-05 -2.91819e-05 -3.56959e-05 -2.85912e-05 -3.54348e-05 -2.18604e-05 -2.85912e-05 -2.03309e-05 -2.74012e-05 -2.85912e-05 -3.54348e-05 -2.74012e-05 -3.46338e-05 1.13338e-05 7.66471e-06 1.41758e-05 1.06577e-05 7.66471e-06 3.3239e-06 1.06577e-05 6.40546e-06 1.41758e-05 1.06577e-05 1.79089e-05 1.46901e-05 1.06577e-05 6.40546e-06 1.46901e-05 1.06954e-05 3.3239e-06 -1.69171e-06 6.40546e-06 1.40756e-06 -1.69171e-06 -7.35454e-06 1.40756e-06 -4.31282e-06 6.40546e-06 1.40756e-06 1.06954e-05 5.91088e-06 1.40756e-06 -4.31282e-06 5.91088e-06 3.63274e-07 1.79089e-05 1.46901e-05 2.27837e-05 2.01427e-05 1.46901e-05 1.06954e-05 2.01427e-05 1.67534e-05 2.27837e-05 2.01427e-05 2.92185e-05 2.76697e-05 2.01427e-05 1.67534e-05 2.76697e-05 2.55689e-05 1.06954e-05 5.91088e-06 1.67534e-05 1.26203e-05 5.91088e-06 3.63274e-07 1.26203e-05 7.79615e-06 1.67534e-05 1.26203e-05 2.55689e-05 2.29885e-05 1.26203e-05 7.79615e-06 2.29885e-05 2.00612e-05 -7.35454e-06 -1.36015e-05 -4.31282e-06 -1.06918e-05 -1.36015e-05 -2.03309e-05 -1.06918e-05 -1.76211e-05 -4.31282e-06 -1.06918e-05 3.63274e-07 -5.8743e-06 -1.06918e-05 -1.76211e-05 -5.8743e-06 -1.26795e-05 -2.03309e-05 -2.74012e-05 -1.76211e-05 -2.49476e-05 -2.74012e-05 -3.46338e-05 -2.49476e-05 -3.24763e-05 -1.76211e-05 -2.49476e-05 -1.26795e-05 -1.98826e-05 -2.49476e-05 -3.24763e-05 -1.98826e-05 -2.72724e-05 3.63274e-07 -5.8743e-06 7.79615e-06 2.38578e-06 -5.8743e-06 -1.26795e-05 2.38578e-06 -3.45609e-06 7.79615e-06 2.38578e-06 2.00612e-05 1.69758e-05 2.38578e-06 -3.45609e-06 1.69758e-05 1.39606e-05 -1.26795e-05 -1.98826e-05 -3.45609e-06 -9.53372e-06 -1.98826e-05 -2.72724e-05 -9.53372e-06 -1.56253e-05 -3.45609e-06 -9.53372e-06 1.39606e-05 1.12562e-05 -9.53372e-06 -1.56253e-05 1.12562e-05 9.08031e-06 -3.59184e-05 -4.20433e-05 -3.57997e-05 -4.1986e-05 -4.20433e-05 -4.78635e-05 -4.1986e-05 -4.78676e-05 -3.57997e-05 -4.1986e-05 -3.56959e-05 -4.21045e-05 -4.1986e-05 -4.78676e-05 -4.21045e-05 -4.82133e-05 -4.78635e-05 -5.31921e-05 -4.78676e-05 -5.32544e-05 -5.31921e-05 -5.78456e-05 -5.32544e-05 -5.796e-05 -4.78676e-05 -5.32544e-05 -4.82133e-05 -5.38205e-05 -5.32544e-05 -5.796e-05 -5.38205e-05 -5.87275e-05 -3.56959e-05 -4.21045e-05 -3.54348e-05 -4.21992e-05 -4.21045e-05 -4.82133e-05 -4.21992e-05 -4.86727e-05 -3.54348e-05 -4.21992e-05 -3.46338e-05 -4.18184e-05 -4.21992e-05 -4.86727e-05 -4.18184e-05 -4.87215e-05 -4.82133e-05 -5.38205e-05 -4.86727e-05 -5.46341e-05 -5.38205e-05 -5.87275e-05 -5.46341e-05 -5.98651e-05 -4.86727e-05 -5.46341e-05 -4.87215e-05 -5.50989e-05 -5.46341e-05 -5.98651e-05 -5.50989e-05 -6.07086e-05 -5.78456e-05 -6.16543e-05 -5.796e-05 -6.1812e-05 -6.16543e-05 -6.44729e-05 -6.1812e-05 -6.46631e-05 -5.796e-05 -6.1812e-05 -5.87275e-05 -6.27504e-05 -6.1812e-05 -6.46631e-05 -6.27504e-05 -6.57315e-05 -6.44729e-05 -6.61898e-05 -6.46631e-05 -6.64001e-05 -6.61898e-05 -6.67348e-05 -6.64001e-05 -6.69519e-05 -6.46631e-05 -6.64001e-05 -6.57315e-05 -6.75498e-05 -6.64001e-05 -6.69519e-05 -6.75498e-05 -6.81293e-05 -5.87275e-05 -6.27504e-05 -5.98651e-05 -6.4163e-05 -6.27504e-05 -6.57315e-05 -6.4163e-05 -6.73535e-05 -5.98651e-05 -6.4163e-05 -6.07086e-05 -6.53263e-05 -6.4163e-05 -6.73535e-05 -6.53263e-05 -6.87595e-05 -6.57315e-05 -6.75498e-05 -6.73535e-05 -6.93029e-05 -6.75498e-05 -6.81293e-05 -6.93029e-05 -6.99269e-05 -6.73535e-05 -6.93029e-05 -6.87595e-05 -7.08603e-05 -6.93029e-05 -6.99269e-05 -7.08603e-05 -7.15357e-05 -3.46338e-05 -4.18184e-05 -3.24763e-05 -3.99778e-05 -4.18184e-05 -4.87215e-05 -3.99778e-05 -4.71989e-05 -3.24763e-05 -3.99778e-05 -2.72724e-05 -3.46078e-05 -3.99778e-05 -4.71989e-05 -3.46078e-05 -4.16313e-05 -4.87215e-05 -5.50989e-05 -4.71989e-05 -5.3876e-05 -5.50989e-05 -6.07086e-05 -5.3876e-05 -5.97511e-05 -4.71989e-05 -5.3876e-05 -4.16313e-05 -4.80849e-05 -5.3876e-05 -5.97511e-05 -4.80849e-05 -5.37256e-05 -2.72724e-05 -3.46078e-05 -1.56253e-05 -2.15023e-05 -3.46078e-05 -4.16313e-05 -2.15023e-05 -2.69494e-05 -1.56253e-05 -2.15023e-05 9.08031e-06 7.58953e-06 -2.15023e-05 -2.69494e-05 7.58953e-06 6.84783e-06 -4.16313e-05 -4.80849e-05 -2.69494e-05 -3.17821e-05 -4.80849e-05 -5.37256e-05 -3.17821e-05 -3.58579e-05 -2.69494e-05 -3.17821e-05 6.84783e-06 6.80871e-06 -3.17821e-05 -3.58579e-05 6.80871e-06 7.31842e-06 -6.07086e-05 -6.53263e-05 -5.97511e-05 -6.45867e-05 -6.53263e-05 -6.87595e-05 -6.45867e-05 -6.81811e-05 -5.97511e-05 -6.45867e-05 -5.37256e-05 -5.83388e-05 -6.45867e-05 -6.81811e-05 -5.83388e-05 -6.17489e-05 -6.87595e-05 -7.08603e-05 -6.81811e-05 -7.03808e-05 -7.08603e-05 -7.15357e-05 -7.03808e-05 -7.10894e-05 -6.81811e-05 -7.03808e-05 -6.17489e-05 -6.38265e-05 -7.03808e-05 -7.10894e-05 -6.38265e-05 -6.44923e-05 -5.37256e-05 -5.83388e-05 -3.58579e-05 -3.90795e-05 -5.83388e-05 -6.17489e-05 -3.90795e-05 -4.13898e-05 -3.58579e-05 -3.90795e-05 7.31842e-06 8.14198e-06 -3.90795e-05 -4.13898e-05 8.14198e-06 9.00878e-06 -6.17489e-05 -6.38265e-05 -4.13898e-05 -4.27611e-05 -6.38265e-05 -6.44923e-05 -4.27611e-05 -4.31834e-05 -4.13898e-05 -4.27611e-05 9.00878e-06 9.66845e-06 -4.27611e-05 -4.31834e-05 9.66845e-06 9.94475e-06 2.92185e-05 2.76697e-05 3.79207e-05 3.84034e-05 2.76697e-05 2.55689e-05 3.84034e-05 3.88876e-05 3.79207e-05 3.84034e-05 5.00903e-05 5.42906e-05 3.84034e-05 3.88876e-05 5.42906e-05 5.97488e-05 2.55689e-05 2.29885e-05 3.88876e-05 3.96214e-05 2.29885e-05 2.00612e-05 3.96214e-05 4.0934e-05 3.88876e-05 3.96214e-05 5.97488e-05 6.7106e-05 3.96214e-05 4.0934e-05 6.7106e-05 7.7121e-05 5.00903e-05 5.42906e-05 6.77379e-05 7.86201e-05 5.42906e-05 5.97488e-05 7.86201e-05 9.33271e-05 6.77379e-05 7.86201e-05 9.41581e-05 0.000116804 7.86201e-05 9.33271e-05 0.000116804 0.000148176 5.97488e-05 6.7106e-05 9.33271e-05 0.000113305 6.7106e-05 7.7121e-05 0.000113305 0.000140185 9.33271e-05 0.000113305 0.000148176 0.000191271 0.000113305 0.000140185 0.000191271 0.000249394 2.00612e-05 1.69758e-05 4.0934e-05 4.32093e-05 1.69758e-05 1.39606e-05 4.32093e-05 4.68362e-05 4.0934e-05 4.32093e-05 7.7121e-05 9.05954e-05 4.32093e-05 4.68362e-05 9.05954e-05 0.000108253 1.39606e-05 1.12562e-05 4.68362e-05 5.21396e-05 1.12562e-05 9.08031e-06 5.21396e-05 5.93001e-05 4.68362e-05 5.21396e-05 0.000108253 0.000130583 5.21396e-05 5.93001e-05 0.000130583 0.000157662 7.7121e-05 9.05954e-05 0.000140185 0.00017561 9.05954e-05 0.000108253 0.00017561 0.00022097 0.00014018