# vtk DataFile Version 3.0
#This file was generated by the deal.II library on 2018/12/12 at 9:34:15
ASCII
DATASET UNSTRUCTURED_GRID

POINTS 58996 double
0.5 0.5 0
1 0.5 0
0.5 1 0
1 1 0
0 0 0
0.25 0 0
0 0.25 0
0.25 0.25 0
0.25 0.25 0
0.5 0.25 0
0.25 0.5 0
0.5 0.5 0
0.75 0 0
1 0 0
0.75 0.25 0
1 0.25 0
0.5 0.25 0
0.75 0.25 0
0.5 0.5 0
0.75 0.5 0
0.75 0.25 0
1 0.25 0
0.75 0.5 0
1 0.5 0
0.25 0.5 0
0.5 0.5 0
0.25 0.75 0
0.5 0.75 0
0 0.75 0
0.25 0.75 0
0 1 0
0.25 1 0
0.25 0.75 0
0.5 0.75 0
0.25 1 0
0.5 1 0
-0.75 -1 0
-0.625 -1 0
-0.75 -0.875 0
-0.625 -0.875 0
-0.375 -1 0
-0.25 -1 0
-0.375 -0.875 0
-0.25 -0.875 0
0.25 -1 0
0.375 -1 0
0.25 -0.875 0
0.375 -0.875 0
0.625 -1 0
0.75 -1 0
0.625 -0.875 0
0.75 -0.875 0
0 -0.375 0
0.125 -0.375 0
0 -0.25 0
0.125 -0.25 0
-0.75 0 0
-0.625 0 0
-0.75 0.125 0
-0.625 0.125 0
-0.375 0 0
-0.25 0 0
-0.375 0.125 0
-0.25 0.125 0
-1 0.625 0
-0.875 0.625 0
-1 0.75 0
-0.875 0.75 0
-1 -0.75 0
-0.875 -0.75 0
-1 -0.625 0
-0.875 -0.625 0
-0.125 -0.75 0
0 -0.75 0
-0.125 -0.625 0
0 -0.625 0
-1 -0.375 0
-0.875 -0.375 0
-1 -0.25 0
-0.875 -0.25 0
-0.75 -0.125 0
-0.625 -0.125 0
-0.75 0 0
-0.625 0 0
-0.125 -0.375 0
0 -0.375 0
-0.125 -0.25 0
0 -0.25 0
-0.375 -0.125 0
-0.25 -0.125 0
-0.375 0 0
-0.25 0 0
0 -0.75 0
0.125 -0.75 0
0 -0.625 0
0.125 -0.625 0
0.875 -0.75 0
1 -0.75 0
0.875 -0.625 0
1 -0.625 0
0.25 -0.125 0
0.375 -0.125 0
0.25 0 0
0.375 0 0
0.875 -0.375 0
1 -0.375 0
0.875 -0.25 0
1 -0.25 0
0.625 -0.125 0
0.75 -0.125 0
0.625 0 0
0.75 0 0
-1 0.25 0
-0.875 0.25 0
-1 0.375 0
-0.875 0.375 0
-0.125 0.25 0
0 0.25 0
-0.125 0.375 0
0 0.375 0
-0.75 0.875 0
-0.625 0.875 0
-0.75 1 0
-0.625 1 0
-0.125 0.625 0
0 0.625 0
-0.125 0.75 0
0 0.75 0
-0.375 0.875 0
-0.25 0.875 0
-0.375 1 0
-0.25 1 0
-1 -1 0
-0.875 -1 0
-1 -0.875 0
-0.875 -0.875 0
-0.875 -1 0
-0.75 -1 0
-0.875 -0.875 0
-0.75 -0.875 0
-1 -0.875 0
-0.875 -0.875 0
-1 -0.75 0
-0.875 -0.75 0
-0.875 -0.875 0
-0.75 -0.875 0
-0.875 -0.75 0
-0.75 -0.75 0
-0.25 -1 0
-0.125 -1 0
-0.25 -0.875 0
-0.125 -0.875 0
-0.125 -1 0
0 -1 0
-0.125 -0.875 0
0 -0.875 0
-0.25 -0.875 0
-0.125 -0.875 0
-0.25 -0.75 0
-0.125 -0.75 0
-0.125 -0.875 0
0 -0.875 0
-0.125 -0.75 0
0 -0.75 0
0 -1 0
0.125 -1 0
0 -0.875 0
0.125 -0.875 0
0.125 -1 0
0.25 -1 0
0.125 -0.875 0
0.25 -0.875 0
0 -0.875 0
0.125 -0.875 0
0 -0.75 0
0.125 -0.75 0
0.125 -0.875 0
0.25 -0.875 0
0.125 -0.75 0
0.25 -0.75 0
0.75 -1 0
0.875 -1 0
0.75 -0.875 0
0.875 -0.875 0
0.875 -1 0
1 -1 0
0.875 -0.875 0
1 -0.875 0
0.75 -0.875 0
0.875 -0.875 0
0.75 -0.75 0
0.875 -0.75 0
0.875 -0.875 0
1 -0.875 0
0.875 -0.75 0
1 -0.75 0
-1 0 0
-0.875 0 0
-1 0.125 0
-0.875 0.125 0
-0.875 0 0
-0.75 0 0
-0.875 0.125 0
-0.75 0.125 0
-1 0.125 0
-0.875 0.125 0
-1 0.25 0
-0.875 0.25 0
-0.875 0.125 0
-0.75 0.125 0
-0.875 0.25 0
-0.75 0.25 0
-0.25 0 0
-0.125 0 0
-0.25 0.125 0
-0.125 0.125 0
-0.125 0 0
0 0 0
-0.125 0.125 0
0 0.125 0
-0.25 0.125 0
-0.125 0.125 0
-0.25 0.25 0
-0.125 0.25 0
-0.125 0.125 0
0 0.125 0
-0.125 0.25 0
0 0.25 0
-1 -0.25 0
-0.875 -0.25 0
-1 -0.125 0
-0.875 -0.125 0
-0.875 -0.25 0
-0.75 -0.25 0
-0.875 -0.125 0
-0.75 -0.125 0
-1 -0.125 0
-0.875 -0.125 0
-1 0 0
-0.875 0 0
-0.875 -0.125 0
-0.75 -0.125 0
-0.875 0 0
-0.75 0 0
-0.25 -0.25 0
-0.125 -0.25 0
-0.25 -0.125 0
-0.125 -0.125 0
-0.125 -0.25 0
0 -0.25 0
-0.125 -0.125 0
0 -0.125 0
-0.25 -0.125 0
-0.125 -0.125 0
-0.25 0 0
-0.125 0 0
-0.125 -0.125 0
0 -0.125 0
-0.125 0 0
0 0 0
0 -0.25 0
0.125 -0.25 0
0 -0.125 0
0.125 -0.125 0
0.125 -0.25 0
0.25 -0.25 0
0.125 -0.125 0
0.25 -0.125 0
0 -0.125 0
0.125 -0.125 0
0 0 0
0.125 0 0
0.125 -0.125 0
0.25 -0.125 0
0.125 0 0
0.25 0 0
0.75 -0.25 0
0.875 -0.25 0
0.75 -0.125 0
0.875 -0.125 0
0.875 -0.25 0
1 -0.25 0
0.875 -0.125 0
1 -0.125 0
0.75 -0.125 0
0.875 -0.125 0
0.75 0 0
0.875 0 0
0.875 -0.125 0
1 -0.125 0
0.875 0 0
1 0 0
-1 0.75 0
-0.875 0.75 0
-1 0.875 0
-0.875 0.875 0
-0.875 0.75 0
-0.75 0.75 0
-0.875 0.875 0
-0.75 0.875 0
-1 0.875 0
-0.875 0.875 0
-1 1 0
-0.875 1 0
-0.875 0.875 0
-0.75 0.875 0
-0.875 1 0
-0.75 1 0
-0.25 0.75 0
-0.125 0.75 0
-0.25 0.875 0
-0.125 0.875 0
-0.125 0.75 0
0 0.75 0
-0.125 0.875 0
0 0.875 0
-0.25 0.875 0
-0.125 0.875 0
-0.25 1 0
-0.125 1 0
-0.125 0.875 0
0 0.875 0
-0.125 1 0
0 1 0
0.25 0 0
0.375 0 0
0.25 0.125 0
0.375 0.125 0
0.375 0 0
0.5 0 0
0.375 0.125 0
0.5 0.125 0
0.25 0.125 0
0.375 0.125 0
0.25 0.25 0
0.375 0.25 0
0.375 0.125 0
0.5 0.125 0
0.375 0.25 0
0.5 0.25 0
0 0.25 0
0.125 0.25 0
0 0.375 0
0.125 0.375 0
0.125 0.25 0
0.25 0.25 0
0.125 0.375 0
0.25 0.375 0
0 0.375 0
0.125 0.375 0
0 0.5 0
0.125 0.5 0
0.125 0.375 0
0.25 0.375 0
0.125 0.5 0
0.25 0.5 0
0.5 0 0
0.625 0 0
0.5 0.125 0
0.625 0.125 0
0.625 0 0
0.75 0 0
0.625 0.125 0
0.75 0.125 0
0.5 0.125 0
0.625 0.125 0
0.5 0.25 0
0.625 0.25 0
0.625 0.125 0
0.75 0.125 0
0.625 0.25 0
0.75 0.25 0
0 0.5 0
0.125 0.5 0
0 0.625 0
0.125 0.625 0
0.125 0.5 0
0.25 0.5 0
0.125 0.625 0
0.25 0.625 0
0 0.625 0
0.125 0.625 0
0 0.75 0
0.125 0.75 0
0.125 0.625 0
0.25 0.625 0
0.125 0.75 0
0.25 0.75 0
-0.875 -0.625 0
-0.8125 -0.625 0
-0.875 -0.5625 0
-0.8125 -0.5625 0
0.125 -0.625 0
0.1875 -0.625 0
0.125 -0.5625 0
0.1875 -0.5625 0
0.8125 -0.625 0
0.875 -0.625 0
0.8125 -0.5625 0
0.875 -0.5625 0
-0.875 0.375 0
-0.8125 0.375 0
-0.875 0.4375 0
-0.8125 0.4375 0
-0.1875 -0.625 0
-0.125 -0.625 0
-0.1875 -0.5625 0
-0.125 -0.5625 0
-0.1875 -0.4375 0
-0.125 -0.4375 0
-0.1875 -0.375 0
-0.125 -0.375 0
-0.4375 -0.1875 0
-0.375 -0.1875 0
-0.4375 -0.125 0
-0.375 -0.125 0
0.8125 -0.4375 0
0.875 -0.4375 0
0.8125 -0.375 0
0.875 -0.375 0
0.5625 -0.1875 0
0.625 -0.1875 0
0.5625 -0.125 0
0.625 -0.125 0
-0.1875 0.375 0
-0.125 0.375 0
-0.1875 0.4375 0
-0.125 0.4375 0
-0.1875 0.5625 0
-0.125 0.5625 0
-0.1875 0.625 0
-0.125 0.625 0
-0.4375 0.8125 0
-0.375 0.8125 0
-0.4375 0.875 0
-0.375 0.875 0
-0.75 -0.875 0
-0.6875 -0.875 0
-0.75 -0.8125 0
-0.6875 -0.8125 0
-0.6875 -0.875 0
-0.625 -0.875 0
-0.6875 -0.8125 0
-0.625 -0.8125 0
-0.75 -0.8125 0
-0.6875 -0.8125 0
-0.75 -0.75 0
-0.6875 -0.75 0
-0.375 -0.875 0
-0.3125 -0.875 0
-0.375 -0.8125 0
-0.3125 -0.8125 0
-0.3125 -0.875 0
-0.25 -0.875 0
-0.3125 -0.8125 0
-0.25 -0.8125 0
-0.3125 -0.8125 0
-0.25 -0.8125 0
-0.3125 -0.75 0
-0.25 -0.75 0
0.25 -0.875 0
0.3125 -0.875 0
0.25 -0.8125 0
0.3125 -0.8125 0
0.3125 -0.875 0
0.375 -0.875 0
0.3125 -0.8125 0
0.375 -0.8125 0
0.25 -0.8125 0
0.3125 -0.8125 0
0.25 -0.75 0
0.3125 -0.75 0
0.625 -0.875 0
0.6875 -0.875 0
0.625 -0.8125 0
0.6875 -0.8125 0
0.6875 -0.875 0
0.75 -0.875 0
0.6875 -0.8125 0
0.75 -0.8125 0
0.6875 -0.8125 0
0.75 -0.8125 0
0.6875 -0.75 0
0.75 -0.75 0
-0.75 0.125 0
-0.6875 0.125 0
-0.75 0.1875 0
-0.6875 0.1875 0
-0.6875 0.125 0
-0.625 0.125 0
-0.6875 0.1875 0
-0.625 0.1875 0
-0.75 0.1875 0
-0.6875 0.1875 0
-0.75 0.25 0
-0.6875 0.25 0
-0.375 0.125 0
-0.3125 0.125 0
-0.375 0.1875 0
-0.3125 0.1875 0
-0.3125 0.125 0
-0.25 0.125 0
-0.3125 0.1875 0
-0.25 0.1875 0
-0.3125 0.1875 0
-0.25 0.1875 0
-0.3125 0.25 0
-0.25 0.25 0
-0.875 -0.75 0
-0.8125 -0.75 0
-0.875 -0.6875 0
-0.8125 -0.6875 0
-0.8125 -0.75 0
-0.75 -0.75 0
-0.8125 -0.6875 0
-0.75 -0.6875 0
-0.875 -0.6875 0
-0.8125 -0.6875 0
-0.875 -0.625 0
-0.8125 -0.625 0
-0.25 -0.75 0
-0.1875 -0.75 0
-0.25 -0.6875 0
-0.1875 -0.6875 0
-0.1875 -0.75 0
-0.125 -0.75 0
-0.1875 -0.6875 0
-0.125 -0.6875 0
-0.1875 -0.6875 0
-0.125 -0.6875 0
-0.1875 -0.625 0
-0.125 -0.625 0
0.125 -0.75 0
0.1875 -0.75 0
0.125 -0.6875 0
0.1875 -0.6875 0
0.1875 -0.75 0
0.25 -0.75 0
0.1875 -0.6875 0
0.25 -0.6875 0
0.125 -0.6875 0
0.1875 -0.6875 0
0.125 -0.625 0
0.1875 -0.625 0
0.75 -0.75 0
0.8125 -0.75 0
0.75 -0.6875 0
0.8125 -0.6875 0
0.8125 -0.75 0
0.875 -0.75 0
0.8125 -0.6875 0
0.875 -0.6875 0
0.8125 -0.6875 0
0.875 -0.6875 0
0.8125 -0.625 0
0.875 -0.625 0
-0.875 0.25 0
-0.8125 0.25 0
-0.875 0.3125 0
-0.8125 0.3125 0
-0.8125 0.25 0
-0.75 0.25 0
-0.8125 0.3125 0
-0.75 0.3125 0
-0.875 0.3125 0
-0.8125 0.3125 0
-0.875 0.375 0
-0.8125 0.375 0
-0.25 0.25 0
-0.1875 0.25 0
-0.25 0.3125 0
-0.1875 0.3125 0
-0.1875 0.25 0
-0.125 0.25 0
-0.1875 0.3125 0
-0.125 0.3125 0
-0.1875 0.3125 0
-0.125 0.3125 0
-0.1875 0.375 0
-0.125 0.375 0
0.125 -0.375 0
0.1875 -0.375 0
0.125 -0.3125 0
0.1875 -0.3125 0
0.125 -0.3125 0
0.1875 -0.3125 0
0.125 -0.25 0
0.1875 -0.25 0
0.1875 -0.3125 0
0.25 -0.3125 0
0.1875 -0.25 0
0.25 -0.25 0
-0.875 0.625 0
-0.8125 0.625 0
-0.875 0.6875 0
-0.8125 0.6875 0
-0.875 0.6875 0
-0.8125 0.6875 0
-0.875 0.75 0
-0.8125 0.75 0
-0.8125 0.6875 0
-0.75 0.6875 0
-0.8125 0.75 0
-0.75 0.75 0
-0.875 -0.375 0
-0.8125 -0.375 0
-0.875 -0.3125 0
-0.8125 -0.3125 0
-0.875 -0.3125 0
-0.8125 -0.3125 0
-0.875 -0.25 0
-0.8125 -0.25 0
-0.8125 -0.3125 0
-0.75 -0.3125 0
-0.8125 -0.25 0
-0.75 -0.25 0
-0.75 -0.25 0
-0.6875 -0.25 0
-0.75 -0.1875 0
-0.6875 -0.1875 0
-0.75 -0.1875 0
-0.6875 -0.1875 0
-0.75 -0.125 0
-0.6875 -0.125 0
-0.6875 -0.1875 0
-0.625 -0.1875 0
-0.6875 -0.125 0
-0.625 -0.125 0
-0.1875 -0.375 0
-0.125 -0.375 0
-0.1875 -0.3125 0
-0.125 -0.3125 0
-0.25 -0.3125 0
-0.1875 -0.3125 0
-0.25 -0.25 0
-0.1875 -0.25 0
-0.1875 -0.3125 0
-0.125 -0.3125 0
-0.1875 -0.25 0
-0.125 -0.25 0
-0.3125 -0.25 0
-0.25 -0.25 0
-0.3125 -0.1875 0
-0.25 -0.1875 0
-0.375 -0.1875 0
-0.3125 -0.1875 0
-0.375 -0.125 0
-0.3125 -0.125 0
-0.3125 -0.1875 0
-0.25 -0.1875 0
-0.3125 -0.125 0
-0.25 -0.125 0
0.25 -0.25 0
0.3125 -0.25 0
0.25 -0.1875 0
0.3125 -0.1875 0
0.25 -0.1875 0
0.3125 -0.1875 0
0.25 -0.125 0
0.3125 -0.125 0
0.3125 -0.1875 0
0.375 -0.1875 0
0.3125 -0.125 0
0.375 -0.125 0
0.8125 -0.375 0
0.875 -0.375 0
0.8125 -0.3125 0
0.875 -0.3125 0
0.75 -0.3125 0
0.8125 -0.3125 0
0.75 -0.25 0
0.8125 -0.25 0
0.8125 -0.3125 0
0.875 -0.3125 0
0.8125 -0.25 0
0.875 -0.25 0
0.6875 -0.25 0
0.75 -0.25 0
0.6875 -0.1875 0
0.75 -0.1875 0
0.625 -0.1875 0
0.6875 -0.1875 0
0.625 -0.125 0
0.6875 -0.125 0
0.6875 -0.1875 0
0.75 -0.1875 0
0.6875 -0.125 0
0.75 -0.125 0
-0.75 0.75 0
-0.6875 0.75 0
-0.75 0.8125 0
-0.6875 0.8125 0
-0.75 0.8125 0
-0.6875 0.8125 0
-0.75 0.875 0
-0.6875 0.875 0
-0.6875 0.8125 0
-0.625 0.8125 0
-0.6875 0.875 0
-0.625 0.875 0
-0.1875 0.625 0
-0.125 0.625 0
-0.1875 0.6875 0
-0.125 0.6875 0
-0.25 0.6875 0
-0.1875 0.6875 0
[...]
POINT_DATA 58996
SCALARS solution double 1
LOOKUP_TABLE default
-0.000163661 1.80485e-35 1.80485e-35 0 0.000285572 -0.000180916 8.12138e-05 -0.000198056 -0.000198056 -0.000307036 -0.000212584 -0.000163661 -0.000550708 1.26642e-14 -0.000230977 2.61028e-23 -0.000307036 -0.000230977 -0.000163661 -8.18303e-05 -0.000230977 2.61028e-23 -8.18303e-05 1.80485e-35 -0.000212584 -0.000163661 -0.000163411 -8.18303e-05 -0.000409778 -0.000163411 1.26642e-14 2.61028e-23 -0.000163411 -8.18303e-05 2.61028e-23 1.80485e-35 0.00517532 0.00512672 0.00529536 0.00535854 0.00436389 0.00387045 0.0044739 0.00380741 0.00329256 0.00320244 0.00340158 0.00343498 0.00221208 0.00148966 0.00236713 0.00148095 0.00103257 0.00115041 0.00061104 0.00052714 0.00215396 0.00181524 0.00254089 0.00247855 0.000992304 0.000700601 0.0015368 0.000935752 0.0011755 0.00116488 0.000664202 0.000559132 0.00488848 0.0050542 0.00451478 0.00477971 0.00296238 0.00288592 0.00231218 0.00232855 0.00326905 0.00323928 0.00275612 0.00261543 0.00195785 0.00139443 0.00215396 0.00181524 0.000755687 0.00103257 0.000464374 0.00061104 0.000418706 0.000385265 0.000992304 0.000700601 0.00288592 0.0031023 0.00232855 0.00275176 0.000519611 2.06115e-09 0.000206702 4.13994e-08 -0.000171664 -0.000652057 -0.000180916 -0.000493193 -0.000555144 4.13994e-08 -0.000580389 2.06115e-09 -0.0011852 -0.000889164 -0.000746679 -0.000550708 0.00244245 0.00258663 0.00221477 0.00248081 0.000327826 8.12138e-05 -2.25341e-05 -0.000152685 -3.68316e-05 -0.000394381 2.06115e-09 4.13994e-08 -0.000814992 -0.000493794 -0.00072971 -0.000409778 -0.000835154 -0.000651047 4.13994e-08 2.06115e-09 0.0050663 0.00510994 0.00503098 0.00513321 0.00510994 0.00517532 0.00513321 0.00529536 0.00503098 0.00513321 0.00488848 0.0050542 0.00513321 0.00529536 0.0050542 0.00575932 0.00387045 0.00347734 0.00380741 0.0033738 0.00347734 0.00328548 0.0033738 0.00318152 0.00380741 0.0033738 0.00377766 0.00296238 0.0033738 0.00318152 0.00296238 0.00288592 0.00328548 0.0032623 0.00318152 0.00325326 0.0032623 0.00329256 0.00325326 0.00340158 0.00318152 0.00325326 0.00288592 0.0031023 0.00325326 0.00340158 0.0031023 0.00384035 0.00148966 0.000731191 0.00148095 0.000711167 0.000731191 1.26642e-14 0.000711167 1.38879e-11 0.00148095 0.000711167 0.00160052 0.000519611 0.000711167 1.38879e-11 0.000519611 2.06115e-09 0.00240013 0.00233782 0.00244231 0.00249522 0.00233782 0.00215396 0.00249522 0.00254089 0.00244231 0.00249522 0.00244245 0.00258663 0.00249522 0.00254089 0.00258663 0.00324789 0.000700601 0.000473933 0.000935752 0.000507538 0.000473933 0.000285572 0.000507538 0.000183393 0.000935752 0.000507538 0.00119506 0.000327826 0.000507538 0.000183393 0.000327826 8.12138e-05 0.00275612 0.00261543 0.00246567 0.00235766 0.00261543 0.00241058 0.00235766 0.00195785 0.00246567 0.00235766 0.00240013 0.00233782 0.00235766 0.00195785 0.00233782 0.00215396 0.000357232 0.000464374 0.000385265 0.000435881 0.000464374 0.00061104 0.000435881 0.000381319 0.000385265 0.000435881 0.000700601 0.000473933 0.000435881 0.000381319 0.000473933 0.000285572 0.00061104 0.00052714 0.000381319 0.000219923 0.00052714 0.000390354 0.000219923 -0.000171664 0.000381319 0.000219923 0.000285572 5.23281e-05 0.000219923 -0.000171664 5.23281e-05 -0.000180916 -0.000987615 -0.000580389 -0.000889164 -0.000426879 -0.000580389 2.06115e-09 -0.000426879 1.38879e-11 -0.000889164 -0.000426879 -0.000550708 -0.000275354 -0.000426879 1.38879e-11 -0.000275354 1.26642e-14 0.000664202 0.000559132 0.000280645 0.000221576 0.000559132 0.000441354 0.000221576 -3.68316e-05 0.000280645 0.000221576 1.26642e-14 1.38879e-11 0.000221576 -3.68316e-05 1.38879e-11 2.06115e-09 -0.000977686 -0.00072971 -0.000651047 -0.000388342 -0.00072971 -0.000409778 -0.000388342 -0.000204889 -0.000651047 -0.000388342 2.06115e-09 1.38879e-11 -0.000388342 -0.000204889 1.38879e-11 1.26642e-14 -0.000180916 -0.000493193 -0.000189486 -0.000345055 -0.000493193 -0.000710496 -0.000345055 -0.000444646 -0.000189486 -0.000345055 -0.000198056 -0.000252546 -0.000345055 -0.000444646 -0.000252546 -0.000307036 8.12138e-05 -5.8421e-05 -0.000152685 -0.000171484 -5.8421e-05 -0.000198056 -0.000171484 -0.00020532 -0.000152685 -0.000171484 -0.000373517 -0.00026029 -0.000171484 -0.00020532 -0.00026029 -0.000212584 -0.000710496 -0.000746679 -0.000444646 -0.000453651 -0.000746679 -0.000550708 -0.000453651 -0.000390843 -0.000444646 -0.000453651 -0.000307036 -0.000269006 -0.000453651 -0.000390843 -0.000269006 -0.000230977 -0.000373517 -0.00026029 -0.000493794 -0.000296761 -0.00026029 -0.000212584 -0.000296761 -0.000187997 -0.000493794 -0.000296761 -0.000409778 -0.000286595 -0.000296761 -0.000187997 -0.000286595 -0.000163411 0.00477971 0.00568445 0.00447888 0.00607309 0.00275176 0.00370158 0.00241411 0.00407093 0.000979739 0.000206702 0.00130032 -4.82797e-05 0.00248081 0.00338033 0.0022509 0.00384922 0.00300695 0.00231218 0.00317423 0.00185703 0.00206545 0.00103606 0.00116164 0.000755687 0.00138924 0.000699788 0.000520333 0.000418706 0.00050741 -0.000463179 -0.000259678 -0.000555144 -0.000322083 -0.000890158 -0.0012386 -0.0011852 0.000708077 -2.25341e-05 0.00103795 -0.000303319 0.000279467 -0.000741269 -0.000449103 -0.000814992 -9.15464e-05 -0.000678596 -0.000869429 -0.000835154 0.00529536 0.00532695 0.00552734 0.00566343 0.00532695 0.00535854 0.00566343 0.00625181 0.00552734 0.00566343 0.00575932 0.00752519 0.0044739 0.00414066 0.0051724 0.00423169 0.00414066 0.00380741 0.00423169 0.00379254 0.00423169 0.00379254 0.00572471 0.00377766 0.00340158 0.00341828 0.00362097 0.00375373 0.00341828 0.00343498 0.00375373 0.00433086 0.00362097 0.00375373 0.00384035 0.00561126 0.00236713 0.00192404 0.00309806 0.0020749 0.00192404 0.00148095 0.0020749 0.00154074 0.0020749 0.00154074 0.00363405 0.00160052 0.00254089 0.00250972 0.00289439 0.00299039 0.00250972 0.00247855 0.00299039 0.00354055 0.00289439 0.00299039 0.00324789 0.00498603 0.0015368 0.00123628 0.0024162 0.00149415 0.00123628 0.000935752 0.00149415 0.00106541 0.00149415 0.00106541 0.00314125 0.00119506 0.0050542 0.00540676 0.00491696 0.00531323 0.00540676 0.00575932 0.00531323 0.00729977 0.00491696 0.00531323 0.00477971 0.00568445 0.00377766 0.00337002 0.00491532 0.00296301 0.00337002 0.00296238 0.00296301 0.00263728 0.00296301 0.00263728 0.00300695 0.00231218 0.0031023 0.00347132 0.00292703 0.00335477 0.00347132 0.00384035 0.00335477 0.00536579 0.00292703 0.00335477 0.00275176 0.00370158 0.00160052 0.00106006 0.00283153 0.000791802 0.00106006 0.000519611 0.000791802 0.000363156 0.000791802 0.000363156 0.000979739 0.000206702 0.00258663 0.00291726 0.00253372 0.00291986 0.00291726 0.00324789 0.00291986 0.00489429 0.00253372 0.00291986 0.00248081 0.00338033 0.00119506 0.000761443 0.00247804 0.000509956 0.000761443 0.000327826 0.000509956 0.000152646 0.000509956 0.000152646 0.000708077 -2.25341e-05 0.00115041 0.00173052 0.000838773 0.000824986 0.000838773 0.000824986 0.00052714 0.000458747 0.000824986 0.00217196 0.000458747 0.000390354 0.00116488 0.00170859 0.000862005 0.000838529 0.000862005 0.000838529 0.000559132 0.000500243 0.000838529 0.00218031 0.000500243 0.000441354 0.00323928 0.00376437 0.00292736 0.00286504 0.00292736 0.00286504 0.00261543 0.002513 0.00286504 0.00416874 0.002513 0.00241058 0.00241058 0.00344591 0.00218422 0.00178166 0.00218422 0.00178166 0.00195785 0.00167614 0.00178166 0.0018605 0.00167614 0.00139443 0.00116164 0.000755687 0.000501479 0.000610031 0.00173418 0.000501479 0.000357232 0.000410803 0.000501479 0.000610031 0.000410803 0.000464374 0.00156204 0.000357232 0.000272568 0.000371249 0.000699788 0.000272568 0.000418706 0.000401986 0.000272568 0.000371249 0.000401986 0.000385265 0.000390354 0.00146541 0.000109345 -0.000244641 0.000109345 -0.000244641 -0.000171664 -0.000411861 -0.000244641 -0.000113467 -0.000411861 -0.000652057 -0.000259678 -0.000555144 -0.000802651 -0.000567766 0.00031856 -0.000802651 -0.000987615 -0.000784002 -0.000802651 -0.000567766 -0.000784002 -0.000580389 8.52641e-05 -0.000987615 -0.0011824 -0.00093839 -0.000890158 -0.0011824 -0.0011852 -0.00103718 -0.0011824 -0.00093839 -0.00103718 -0.000889164 0.000441354 0.00153669 0.000202261 -0.000109849 0.000202261 -0.000109849 -3.68316e-05 -0.000215606 -0.000109849 5.76354e-05 -0.000215606 -0.000394381 -0.000449103 -0.000814992 -0.000936537 -0.000772351 0.000243723 -0.000936537 -0.000977686 -0.000853698 -0.000936537 -0.000772351 -0.000853698 -0.00072971 0.000149071 -0.000977686 -0.00100948 -0.000814367 -0.000678596 -0.00100948 -0.000835154 -0.0007431 -0.00100948 -0.000814367 -0.0007431 -0.000651047 0.00512672 0.0050508 0.00524263 0.00510649 0.0050508 0.00487761 0.00510649 0.0049349 0.00524263 0.00510649 0.00535854 0.0053683 0.00510649 0.0049349 0.0053683 0.00518755 0.00487761 0.00464939 0.0049349 0.00468924 0.00464939 0.00436389 0.00468924 0.00441889 0.0049349 0.00468924 0.00518755 0.00489724 0.00468924 0.00441889 0.00489724 0.0044739 0.00320244 0.00309289 0.00331871 0.00315096 0.00309289 0.00287441 0.00315096 0.0029364 0.00331871 0.00315096 0.00343498 0.00341929 0.00315096 0.0029364 0.00341929 0.0032008 0.00287441 0.00258527 0.0029364 0.00263244 0.00258527 0.00221208 0.00263244 0.00228961 0.0029364 0.00263244 0.0032008 0.0028591 0.00263244 0.00228961 0.0028591 0.00236713 0.00167359 0.00181646 0.0013299 0.0014515 0.00181646 0.00213176 0.0014515 0.00165049 0.0013299 0.0014515 0.00103257 0.00109149 0.0014515 0.00165049 0.00109149 0.00115041 0.00181524 0.00162731 0.00214689 0.00195273 0.00162731 0.00140287 0.00195273 0.00174586 0.00214689 0.00195273 0.00247855 0.00243405 0.00195273 0.00174586 0.00243405 0.00222959 0.00140287 0.00118799 0.00174586 0.00150559 0.00118799 0.000992304 0.00150559 0.00126455 0.00174586 0.00150559 0.00222959 0.00193716 0.00150559 0.00126455 0.00193716 0.0015368 0.00178564 0.0018153 0.00148573 0.00150185 0.0018153 0.0020518 0.00150185 0.00163075 0.00148573 0.00150185 0.0011755 0.00117019 0.00150185 0.00163075 0.00117019 0.00116488 0.00451478 0.00464725 0.00428232 0.00431988 0.00464725 0.00477971 0.00431988 0.00447888 0.00428232 0.00431988 0.00395651 0.00398422 0.00431988 0.00447888 0.00398422 0.00421507 0.00231218 0.00232036 0.00185703 0.0019127 0.00232036 0.00232855 0.0019127 0.00203134 0.00185703 0.0019127 0.00154926 0.00152771 0.0019127 0.00203134 0.00152771 0.00167359 0.00395651 0.00398422 0.00360943 0.00362248 0.00398422 0.00421507 0.00362248 0.00374193 0.00360943 0.00362248 0.00326905 0.00325417 0.00362248 0.00374193 0.00325417 0.00323928 0.00139443 0.00113355 0.00160483 0.0013239 0.00113355 0.000850675 0.0013239 0.00106682 0.00160483 0.0013239 0.00181524 0.00162731 0.0013239 0.00106682 0.00162731 0.00140287 0.00154926 0.00152771 0.00103606 0.00118883 0.00152771 0.00167359 0.00118883 0.0013299 0.00103606 0.00118883 0.000755687 0.000894129 0.00118883 0.0013299 0.000894129 0.00103257 0.000850675 0.000520333 0.00106682 0.000855879 0.000520333 0.000418706 0.000855879 0.000705505 0.00106682 0.000855879 0.00140287 0.00118799 0.000855879 0.000705505 0.00118799 0.000992304 0.00232855 0.00254015 0.00203134 0.00217661 0.00254015 0.00275176 0.00217661 0.00241411 0.00203134 0.00217661 0.00167359 0.00181646 0.00217661 0.00241411 0.00181646 0.00213176 0.000206702 0.000103371 -4.82797e-05 -4.02826e-05 0.000103371 4.13994e-08 -4.02826e-05 8.76425e-08 -4.82797e-05 -4.02826e-05 -0.000149905 -0.000159102 -4.02826e-05 8.76425e-08 -0.000159102 1.12535e-07 -0.000652057 -0.000846312 -0.000572625 -0.000761276 -0.000846312 -0.0010295 -0.000761276 -0.000904299 -0.000572625 -0.000761276 -0.000493193 -0.000601845 -0.000761276 -0.000904299 -0.000601845 -0.000710496 -0.000149905 -0.000159102 -0.000463179 -0.000234499 -0.000159102 1.12535e-07 -0.000234499 8.76425e-08 -0.000463179 -0.000234499 -0.000555144 -0.000277551 -0.000234499 8.76425e-08 -0.000277551 4.13994e-08 -0.0010295 -0.0012386 -0.000904299 -0.000973227 -0.0012386 -0.0011852 -0.000973227 -0.000965941 -0.000904299 -0.000973227 -0.000710496 -0.000728588 -0.000973227 -0.000965941 -0.000728588 -0.000746679 0.00221477 0.00234779 0.00205226 0.00209072 0.00234779 0.00248081 0.00209072 0.0022509 0.00205226 0.00209072 0.00178564 0.0018153 0.00209072 0.0022509 0.0018153 0.0020518 -2.25341e-05 -8.76094e-05 -0.000303319 -0.00029595 -8.76094e-05 -0.000152685 -0.00029595 -0.000263101 -0.000303319 -0.00029595 -0.000423583 -0.000468954 -0.00029595 -0.000263101 -0.000468954 -0.000373517 -0.000394381 -0.000527195 -0.00019717 -0.000309025 -0.000527195 -0.000673128 -0.000309025 -0.000395398 -0.00019717 -0.000309025 4.13994e-08 8.76425e-08 -0.000309025 -0.000395398 8.76425e-08 1.12535e-07 -0.000423583 -0.000468954 -0.000741269 -0.000583926 -0.000468954 -0.000373517 -0.000583926 -0.000433655 -0.000741269 -0.000583926 -0.000814992 -0.000654393 -0.000583926 -0.000433655 -0.000654393 -0.000493794 -0.000673128 -0.000869429 -0.000395398 -0.000434156 -0.000869429 -0.000835154 -0.000434156 -0.000417556 -0.000395398 -0.000434156 1.12535e-07 8.76425e-08 -0.000434156 -0.000417556 8.76425e-08 4.13994e-08 0.00625181 0.00657555 0.00787766 0.00928623 0.00577918 0.0051724 0.00828853 0.00674683 0.00433086 0.00464678 0.00595923 0.00736139 0.00373758 0.00309806 0.00626638 0.00469408 0.00241499 0.00479366 0.00173052 0.00328155 0.00354055 0.00384533 0.00524177 0.00663812 0.00301904 0.0024162 0.0056135 0.00407768 0.00237112 0.00473439 0.00170859 0.00324803 0.00568445 0.00728943 0.00587877 0.00856174 0.00587877 0.00856174 0.00607309 0.0096956 0.00444483 0.00679765 0.00376437 0.0052886 0.00370158 0.00532567 0.00388625 0.00659006 0.00388625 0.00659006 0.00407093 0.00771701 0.00259949 0.000979739 0.0037398 0.00114003 0.0037398 0.00114003 0.0048615 0.00130032 0.00338033 0.00498248 0.00361477 0.0062986 0.00361477 0.0062986 0.00384922 0.00747343 0.00639066 0.0119281 0.00416874 0.00702932 0.0044024 0.00996256 0.00217196 0.00505549 0.00438687 0.00994327 0.00218031 0.00506455 0.00459675 0.00300695 0.00567036 0.00309059 0.00567036 0.00309059 0.00672382 0.00317423 0.00337514 0.00447555 0.0018605 0.00203097 0.00533921 0.00206545 0.00401891 0.00161355 0.00401891 0.00161355 0.00261528 0.00116164 0.00464923 0.00339677 0.00138924 0.00104452 0.00339677 0.00213297 0.00104452 0.000699788 0.00142761 0.00255831 -0.000113467 8.8339e-05 0.00375273 0.00050741 0.00249383 0.000123866 0.00249383 0.000123866 0.00114704 -0.000259678 0.00294916 0.00175013 -0.000322083 -0.00060612 0.00175013 0.000543079 -0.00060612 -0.000890158 0.00230815 0.000708077 0.00345977 0.000873014 0.00345977 0.000873014 0.00459284 0.00103795 0.0015599 0.00270248 5.76354e-05 0.000279451 0.00354344 0.000279467 0.00230597 -8.4818e-05 0.00230597 -8.4818e-05 0.000984529 -0.000449103 0.00311987 0.00191343 -9.15464e-05 -0.000385071 0.00191343 0.000694311 -0.000385071 -0.000678596 0.0103924 0.0046407 0.00456162 0.00204096 0.0046407 0.00173418 0.00204096 0.00104571 0.00456162 0.00204096 0.00156204 0.000959636 0.00204096 0.00104571 0.000959636 0.000357232 0.00887155 0.00316963 0.00306502 0.000601885 0.00316963 0.00031856 0.000601885 -0.000334527 0.00306502 0.000601885 8.52641e-05 -0.000451176 0.000601885 -0.000334527 -0.000451176 -0.000987615 0.00884216 0.00312005 0.00307948 0.000594239 0.00312005 0.000243723 0.000594239 -0.000366982 0.00307948 0.000594239 0.000149071 -0.000414308 0.000594239 -0.000366982 -0.000414308 -0.000977686 0.00535854 0.00536342 0.00580518 0.00571731 0.00536342 0.0053683 0.00571731 0.0057504 0.00580518 0.00571731 0.00625181 0.00657555 0.00571731 0.0057504 0.00657555 0.00702039 0.0053683 0.00527793 0.0057504 0.00575103 0.00527793 0.00518755 0.00575103 0.00566032 0.0057504 0.00575103 0.00702039 0.00720356 0.00575103 0.00566032 0.00720356 0.00719448 0.00518755 0.0050424 0.00566032 0.0054953 0.0050424 0.00489724 0.0054953 0.00524835 0.00566032 0.0054953 0.00719448 0.00692467 0.0054953 0.00524835 0.00692467 0.00646088 0.00489724 0.00468557 0.00524835 0.00497357 0.00468557 0.0044739 0.00497357 0.00482315 0.00524835 0.00497357 0.00646088 0.00577918 0.00497357 0.00482315 0.00577918 0.0051724 0.00343498 0.00342713 0.00388292 0.00378481 0.00342713 0.00341929 0.00378481 0.00380512 0.00388292 0.00378481 0.00433086 0.00464678 0.00378481 0.00380512 0.00464678 0.00508079 0.00341929 0.00331004 0.00380512 0.00379038 0.00331004 0.0032008 0.00379038 0.00368083 0.00380512 0.00379038 0.00508079 0.00525039 0.00379038 0.00368083 0.00525039 0.00522474 0.0032008 0.00302995 0.00368083 0.0034939 0.00302995 0.0028591 0.0034939 0.00322079 0.00368083 0.0034939 0.00522474 0.00493495 0.0034939 0.00322079 0.00493495 0.00444759 0.0028591 0.00261312 0.00322079 0.00291623 0.00261312 0.00236713 0.00291623 0.0027326 0.00322079 0.00291623 0.00444759 0.00373758 0.00291623 0.0027326 0.00373758 0.00309806 0.00213176 0.00259589 0.00189113 0.00231993 0.00259589 0.00410327 0.00231993 0.00370827 0.00189113 0.00231993 0.00165049 0.00198811 0.00231993 0.00370827 0.00198811 0.00314259 0.00165049 0.00198811 0.00140045 0.00164628 0.00198811 0.00314259 0.00164628 0.00241499 0.00140045 0.00164628 0.00115041 0.00144046 0.00164628 0.00241499 0.00144046 0.00173052 0.00247855 0.0024563 0.00300955 0.00290128 0.0024563 0.00243405 0.00290128 0.00291645 0.00300955 0.00290128 0.00354055 0.00384533 0.00290128 0.00291645 0.00384533 0.0042763 0.00243405 0.00233182 0.00291645 0.0029036 0.00233182 0.00222959 0.0029036 0.00280509 0.00291645 0.0029036 0.0042763 0.00444891 0.0029036 0.00280509 0.00444891 0.00443298 0.00222959 0.00208337 0.00280509 0.00263631 0.00208337 0.00193716 0.00263631 0.00239082 0.00280509 0.00263631 0.00443298 0.00416009 0.00263631 0.00239082 0.00416009 0.00369649 0.00193716 0.00173698 0.00239082 0.00212078 0.00173698 0.0015368 0.00212078 0.0019765 0.00239082 0.00212078 0.00369649 0.00301904 0.00212078 0.0019765 0.00301904 0.0024162 0.0020518 0.00248421 0.00184128 0.00224263 0.00248421 0.00396647 0.00224263 0.0036068 0.00184128 0.00224263 0.00163075 0.00193939 0.00224263 0.0036068 0.00193939 0.00307218 0.00163075 0.00193939 0.00139781 0.00162172 0.00193939 0.00307218 0.00162172 0.00237112 0.00139781 0.00162172 0.00116488 0.00143673 0.00162172 0.00237112 0.00143673 0.00170859 0.00447888 0.00527598 0.00434697 0.00485355 0.00527598 0.00607309 0.00485355 0.00633333 0.00434697 0.00485355 0.00421507 0.00464427 0.00485355 0.00633333 0.00464427 0.00612149 0.00421507 0.00464427 0.0039785 0.00437368 0.00464427 0.00612149 0.00437368 0.00573149 0.0039785 0.00437368 0.00374193 0.00404512 0.00437368 0.00573149 0.00404512 0.00516973 0.00374193 0.00404512 0.0034906 0.00370549 0.00404512 0.00516973 0.00370549 0.00444483 0.0034906 0.00370549 0.00323928 0.00350183 0.00370549 0.00444483 0.00350183 0.00376437 0.00241411 0.00324252 0.00227294 0.00281228 0.00324252 0.00407093 0.00281228 0.00432151 0.00227294 0.00281228 0.00213176 0.00259589 0.00281228 0.00432151 0.00259589 0.00410327 0.00130032 0.000626019 0.00160197 0.00027234 0.000626019 -4.82797e-05 0.00027234 -9.90923e-05 0.00160197 0.00027234 0.00146769 0.000143666 0.00027234 -9.90923e-05 0.000143666 -0.000149905 0.0022509 0.00305006 0.00215135 0.00266186 0.00305006 0.00384922 0.00266186 0.0041451 0.00215135 0.00266186 0.0020518 0.00248421 0.00266186 0.0041451 0.00248421 0.00396647 0.00575932 0.00664226 0.00652955 0.00782587 0.00664226 0.00752519 0.00782587 0.0105189 0.00652955 0.00782587 0.00729977 0.0104084 0.00782587 0.0105189 0.0104084 0.0168548 0.00572471 0.00475118 0.00856022 0.00573429 0.00475118 0.00377766 0.00573429 0.00434649 0.00856022 0.00573429 0.014566 0.00816178 0.00573429 0.00434649 0.00816178 0.00491532 0.00416874 0.00702932 0.00328966 0.00421933 0.00702932 0.012781 0.00421933 0.00662967 0.00328966 0.00421933 0.00241058 0.00292824 0.00421933 0.00662967 0.00292824 0.00344591 0.00384035 0.00472581 0.00460307 0.00590552 0.00472581 0.00561126 0.00590552 0.00860288 0.00460307 0.00590552 0.00536579 0.00848359 0.00590552 0.00860288 0.00848359 0.0149371 0.00363405 0.00261729 0.00650412 0.00364304 0.00261729 0.00160052 0.00364304 0.00221602 0.00650412 0.00364304 0.012549 0.00611472 0.00364304 0.00221602 0.00611472 0.00283153 0.00217196 0.00505549 